<?xml version="1.0"?>
<VTKFile type="PolyData" version="0.1" byte_order="LittleEndian">
  <PolyData>
    <Piece NumberOfPoints="1100" NumberOfLines="1" NumberOfVerts="200">
      <PointData Scalars="class_id">
        <DataArray type="Int32" Name="class_id" format="ascii">0 0 0 0 0 0 0 0 0 0 0 0 0 0 0 0 0 0 0 0 0 0 0 0 0 0 0 0 0 0 0 0 0 0 0 0 0 0 0 0 0 0 0 0 0 0 0 0 0 0 0 0 0 0 0 0 0 0 0 0 0 0 0 0 0 0 0 0 0 0 0 0 0 0 0 0 0 0 0 0 0 0 0 0 0 0 0 0 0 0 0 0 0 0 0 0 0 0 0 0 0 0 0 0 0 0 0 0 0 0 0 0 0 0 0 0 0 0 0 0 0 0 0 0 0 0 0 0 0 0 0 0 0 0 0 0 0 0 0 0 0 0 0 0 0 0 0 0 0 0 0 0 0 0 0 0 0 0 0 0 0 0 0 0 0 0 0 0 0 0 0 0 0 0 0 0 0 0 0 0 0 0 0 0 0 0 0 0 0 0 0 0 0 0 0 0 0 0 0 0 0 0 0 0 0 0 0 0 0 0 0 0 0 0 0 0 0 0 0 0 0 0 0 0 0 0 0 0 0 0 0 0 0 0 0 0 0 0 0 0 0 0 0 0 0 0 0 0 0 0 0 0 0 0 0 0 0 0 0 0 0 0 0 0 0 0 0 0 0 0 0 0 0 0 0 0 0 0 0 0 0 0 0 0 0 0 0 0 0 0 0 0 0 0 0 0 0 0 0 0 0 0 0 0 0 0 0 0 0 0 0 0 0 0 0 0 0 0 0 0 0 0 0 0 0 0 0 0 0 0 0 0 0 0 0 0 0 0 0 0 0 0 0 0 0 0 0 0 0 0 0 0 0 0 0 0 0 0 0 0 0 0 0 0 0 0 0 0 0 0 0 0 0 0 0 0 0 0 0 0 0 0 0 0 0 0 0 0 0 0 0 0 0 0 0 0 0 0 0 0 0 0 0 0 0 0 0 0 0 0 0 0 0 0 0 0 0 0 0 0 0 0 0 0 0 0 0 0 0 0 0 0 0 0 0 0 0 0 0 0 0 0 0 0 0 0 0 0 0 0 0 0 0 0 0 0 0 0 0 0 0 0 0 0 0 0 0 0 0 0 0 0 0 0 0 0 0 0 0 0 0 0 0 0 0 0 0 0 0 0 0 0 0 0 0 0 0 0 0 0 0 0 0 0 0 0 0 0 0 0 0 0 0 0 0 0 0 0 0 0 0 0 0 0 0 0 0 0 0 0 0 0 0 0 0 0 0 0 0 0 0 0 0 0 0 0 0 0 0 0 0 0 0 0 0 0 0 0 0 0 0 0 0 0 0 0 0 0 0 0 0 0 0 0 0 0 0 0 0 0 0 0 0 0 0 0 0 0 0 0 0 0 0 0 0 0 0 0 0 0 0 0 0 0 0 0 0 0 0 0 0 0 0 0 0 0 0 0 0 0 0 0 0 0 0 0 0 0 0 0 0 0 0 0 0 0 0 0 0 0 0 0 0 0 0 0 0 0 0 0 0 0 0 0 0 0 0 0 0 0 0 0 0 0 0 0 0 0 0 0 0 0 0 0 0 0 0 0 0 0 0 0 0 0 0 0 0 0 0 0 0 0 0 0 0 0 0 0 0 0 0 0 0 0 0 0 0 0 0 0 0 0 0 0 0 0 0 0 0 0 0 0 0 0 0 0 0 0 0 0 0 0 0 0 0 0 0 0 0 0 0 0 0 0 0 0 0 0 0 0 0 0 0 0 0 0 0 0 0 0 0 0 0 0 0 0 0 0 0 0 0 0 0 0 0 0 0 0 0 0 0 0 0 0 0 0 0 0 0 0 0 0 0 0 0 0 0 0 0 0 0 0 0 0 0 0 0 0 0 0 0 0 0 0 0 0 0 0 0 0 0 0 0 0 0 0 0 0 0 0 0 0 0 0 0 0 0 0 0 0 0 0 0 0 0 0 0 0 0 0 0 0 0 0 0 0 0 0 0 0 0 0 0 0 0 0 0 0 0 0 0 0 0 0 0 0 0 0 0 0 0 0 0 0 0 0 0 0 0 0 0 0 0 0 0 0 0 0 0 0 2 2 2 2 2 2 2 2 2 2 2 2 2 2 2 2 2 2 2 2 2 2 2 2 2 2 2 2 2 2 2 2 2 2 2 2 2 2 2 2 2 2 2 2 2 2 2 2 2 2 2 2 2 2 2 2 2 2 2 2 2 2 2 2 2 2 2 2 2 2 2 2 2 2 2 2 2 2 2 2 2 2 2 2 2 2 2 2 2 2 2 2 2 2 2 2 2 2 2 2 1 1 1 1 1 1 1 1 1 1 1 1 1 1 1 1 1 1 1 1 1 1 1 1 1 1 1 1 1 1 1 1 1 1 1 1 1 1 1 1 1 1 1 1 1 1 1 1 1 1 1 1 1 1 1 1 1 1 1 1 1 1 1 1 1 1 1 1 1 1 1 1 1 1 1 1 1 1 1 1 1 1 1 1 1 1 1 1 1 1 1 1 1 1 1 1 1 1 1 1</DataArray>
      </PointData>
      <Points>
        <DataArray type="Float32" NumberOfComponents="3" format="ascii">
0.001 0 0
0.00100038997232 3.49732784248e-05 0
0.000999555966733 6.99737640812e-05 0
0.000997496560511 0.000104958591284 0
0.00099421183317 0.000139884828256 0
0.000989703369354 0.000174709529817 0
0.00098397425986 0.000209389790177 0
0.000977029100815 0.000243882795804 0
0.00096887399099 0.000278145878264 0
0.000959516527262 0.000312136566999 0
0.000948965798223 0.000345812641957 0
0.000937232375933 0.000379132186019 0
0.000924328305837 0.000412053637155 0
0.000910267094837 0.000444535840245 0
0.000895063697555 0.000476538098498 0
0.000878734500766 0.00050802022441 0
0.000861297306058 0.000538942590191 0
0.000842771310699 0.000569266177598 0
0.000823177086754 0.000598952627124 0
0.000802536558471 0.000627964286459 0
0.000780872977949 0.000656264258179 0
0.000758210899135 0.000683816446603 0
0.000734576150152 0.000710585603744 0
0.000709995804021 0.000736537374309 0
0.000684498147778 0.000761638339688 0
0.000658112650047 0.000785856060871 0
0.000630869927087 0.000809159120243 0
0.000602801707369 0.000831517162203 0
0.000573940794702 0.000852900932548 0
0.000544321029982 0.000873282316583 0
0.000513977251568 0.000892634375896 0
0.000482945254377 0.000910931383756 0
0.0004512617477 0.000928148859089 0
0.000418964311829 0.00094426359898 0
0.000386091353518 0.000959253709669 0
0.000352682060347 0.000973098635992 0
0.000318776354031 0.000985779189223 0
0.000284414842739 0.000997277573302 0
0.00024963877248 0.00100757740938 0
0.000214489977608 0.00101666375868 0
0.000179010830505 0.00102452314362 0
0.000143244190509 0.00103114356718 0
0.00010723335215 0.00103651453047 0
7.10219927431e-05 0.00104062704853 0
3.46541194146e-05 0.00104347366423 0
-1.82598437532e-06 0.00104504846037 0
-3.83738127559e-05 0.00104534706987 0
-7.49446917424e-05 0.00104436668411 0
-0.000111493833843 0.00104210605932 0
-0.00014797639291 0.0010385655211 0
-0.000184347519162 0.00103374696697 0
-0.00022056241432 0.00102765386704 0
-0.000256576386781 0.00102029126271 0
-0.000292344906764 0.00101166576344 0
-0.00032782366136 0.0010017855416 0
-0.000362968609419 0.000990660325336 0
-0.000397736036206 0.0009783013896 0
-0.000432082607759 0.000964721545155 0
-0.000465965424874 0.000949935125739 0
-0.000499342076661 0.000933957973303 0
-0.000532170693599 0.000916807421367 0
-0.000564410000023 0.000898502276517 0
-0.000596019365971 0.000879062798042 0
-0.000626958858348 0.000858510675757 0
-0.00065718929131 0.000836869006013 0
-0.000686672275837 0.000814162265936 0
-0.000715370268403 0.000790416285924 0
-0.00074324661871 0.000765658220414 0
-0.0007702656164 0.000739916516979 0
-0.000796392536702 0.000713220883765 0
-0.000821593684949 0.000685602255323 0
-0.000845836439908 0.000657092756866 0
-0.000869089295874 0.000627725666992 0
-0.000891321903461 0.000597535378926 0
-0.000912505109052 0.000566557360307 0
-0.000932610992845 0.00053482811159 0
-0.000951612905453 0.000502385123094 0
-0.000969485503011 0.000469266830754 0
-0.000986204780729 0.000435512570626 0
-0.00100174810488 0.000401162532208 0
-0.00101609424312 0.000366257710611 0
-0.00102922339321 0.000330839857669 0
-0.00104111720994 0.000294951432011 0
-0.00105175883037 0.000258635548185 0
-0.0010611328973 0.000221935924872 0
-0.00106922558086 0.00018489683227 0
-0.00107602459837 0.000147563038696 0
-0.0010815192322 0.000109979756483 0
-0.00108570034588 7.2192587232e-05 0
-0.00108856039815 3.42474664802e-05 0
-0.00109009345519 -3.80939213675e-06 0
-0.00109029520083 -4.19315531687e-05 0
-0.0010891629448 -8.00724160099e-05 0
-0.00108669562903 -0.000118185271863 0
-0.00108289383186 -0.000156223360942 0
-0.00107775977036 -0.000194139929835 0
-0.00107129730059 -0.000231888288974 0
-0.00106351191579 -0.000269421870115 0
-0.00105441074262 -0.00030669428379 0
-0.0010440025354 -0.000343659376626 0
-0.00103229766825 -0.000380271288488 0
-0.0010193081253 -0.00041648450936 0
-0.00100504748886 -0.000452253935898 0
-0.000989530925634 -0.000487534927584 0
-0.000972775170947 -0.000522283362411 0
-0.000954798510985 -0.000556455692033 0
-0.000935620763142 -0.000590008996303 0
-0.000915263254417 -0.000622901037142 0
-0.00089374879793 -0.000655090311657 0
-0.000871101667558 -0.00068653610446 0
-0.000847347570737 -0.000717198539101 0
-0.000822513619445 -0.000747038628569 0
-0.000796628299408 -0.000776018324787 0
-0.000769721437566 -0.000804100567033 0
-0.000741824167821 -0.000831249329244 0
-0.000712968895126 -0.000857429666123 0
-0.00068318925794 -0.000882607758001 0
-0.000652520089105 -0.000906750954397 0
-0.000620997375176 -0.00092982781621 0
-0.000588658214272 -0.000951808156502 0
-0.000555540772471 -0.000972663079811 0
-0.000521684238824 -0.000992365019945 0
-0.000487128779031 -0.00101088777621 0
-0.000451915487825 -0.001028206548 0
-0.000416086340141 -0.00104429796779 0
-0.000379684141109 -0.00105914013234 0
-0.000342752474938 -0.00107271263219 0
-0.000305335652756 -0.00108499657942 0
-0.00026747865946 -0.00109597463348 0
-0.000229227099645 -0.00110563102528 0
-0.000190627142677 -0.00111395157927 0
-0.000151725466975 -0.00112092373372 0
-0.00011256920357 -0.00112653655895 0
-7.32058790025e-05 -0.00113078077367 0
-3.36833576434e-05 -0.00113364875921 0
5.95021650809e-06 -0.00113513457186 0
4.56464784708e-05 -0.00113523395308 0
8.53569013008e-05 -0.0011339443377 0
0.000125032855414 -0.00113126486001 0
0.000164625668136 -0.00112719635782 0
0.000204086683413 -0.00112174137442 0
0.000243367321602 -0.00111490415839 0
0.000282419139271 -0.00110669066139 0
0.000321193888939 -0.00109710853385 0
0.000359643578674 -0.00108616711844 0
0.000397720531484 -0.00107387744165 0
0.000435377444421 -0.0010602522031 0
0.000472567447332 -0.00104530576288 0
0.000509244161167 -0.00102905412678 0
0.000545361755802 -0.00101151492952 0
0.000580875007271 -0.000992707415858 0
0.000615739354359 -0.000972652419812 0
0.000649910954477 -0.000951372341764 0
0.000683346738747 -0.00092889112369 0
0.000716004466234 -0.000905234222406 0
0.000747842777248 -0.000880428580923 0
0.000778821245661 -0.000854502597921 0
0.000808900430158 -0.00082748609538 0
0.000838041924372 -0.000799410284406 0
0.000866208405828 -0.000770307729292 0
0.000893363683638 -0.000740212309853 0
0.00091947274489 -0.000709159182077 0
0.000944501799664 -0.000677184737144 0
0.000968418324623 -0.000644326558854 0
0.000991191105123 -0.000610623379514 0
0.00101279027578 -0.000576115034343 0
0.00103318735945 -0.000540842414439 0
0.00105235530458 -0.000504847418371 0
0.00107026852085 -0.000468172902446 0
0.00108690291307 -0.000430862629719 0
0.00110223591337 -0.0003929612178 0
0.00111624651145 -0.00035451408552 0
0.00112891528306 -0.000315567398525 0
0.00114022441655 -0.000276168013855 0
0.00115015773747 -0.000236363423588 0
0.0011587007312 -0.000196201697596 0
0.0011658405636 -0.000155731425506 0
0.0011715660996 -0.000115001657916 0
0.00117586791979 -7.40618469504e-05 0
0.00117873833482 -3.2961786217e-05 0
0.0011801713978 8.24844975196e-06 0
0.00118016291458 4.95185665094e-05 0
0.00117871045177 9.07981110739e-05 0
0.00117581334277 0.000132036533609 0
0.00117147269153 0.000173183249326 0
0.00116569137419 0.000214187700528 0
0.0011584740385 0.000254999418733 0
0.00114982710112 0.000295568086786 0
0.0011397587427 0.000335843600888 0
0.00112827890078 0.000375776132469 0
0.00111539926057 0.000415316189826 0
0.00110113324347 0.000454414679447 0
0.00108549599357 0.00049302296695 0
0.00106850436188 0.000531092937561 0
0.0010501768885 0.000568577056049 0
0.00103053378272 0.00060542842605 0
0.00100959690093 0.000641600848709 0
0.000987389722578 0.000677048880553 0
0.000963937324036 0.000711727890544 0
0.000939266350461 0.000745594116212 0
0.000913404985696 0.000778604718829 0
0.000886382920233 0.000810717837531 0
0.000858231317254 0.000841892642324 0
0.000828982776823 0.000872089385924 0
0.000798671298246 0.000901269454335 0
0.000767332240646 0.000929395416131 0
0.000735002281808 0.000956431070359 0
0.000701719375336 0.000982341493012 0
0.000667522706165 0.00100709308201 0
0.000632452644492 0.00103065360061 0
0.000596550698179 0.00105299221927 0
0.000559859463668 0.00107407955575 0
0.000522422575486 0.00109388771363 0
0.000484284654396 0.00111239031893 0
0.000445491254239 0.00112956255501 0
0.000406088807552 0.00114538119563 0
0.000366124570015 0.00115982463597 0
0.000325646563796 0.00117287292193 0
0.000284703519858 0.00118450777721 0
0.000243344819309 0.00119471262855 0
0.000201620433848 0.00120347262887 0
0.000159580865399 0.00121077467826 0
0.000117277084984 0.00121660744295 0
7.47604709316e-05 0.00122096137208 0
3.20827464746e-05 0.00122382871236 0
-1.07040831698e-05 0.00122520352046 0
-5.35477941716e-05 0.00122508167331 0
-9.63960078305e-05 0.00122346087606 0
-0.000139196254612 0.00122034066792 0
-0.000181896038395 0.00121572242565 0
-0.000224442900866 0.00120960936491 0
-0.000266784485956 0.00120200653922 0
-0.000308868604267 0.0011929208368 0
-0.000350643297395 0.00118236097504 0
-0.000392056902069 0.0011703374928 0
-0.000433058114037 0.00115686274036 0
-0.000473596051605 0.00114195086724 0
-0.00051362031877 0.00112561780769 0
-0.000553081067845 0.00110788126406 0
-0.000591929061523 0.00108876068787 0
-0.000630115734281 0.00106827725879 0
-0.000667593253064 0.00104645386141 0
-0.000704314577161 0.0010233150599 0
-0.000740233517205 0.000998887070543 0
-0.000775304793226 0.000973197732229 0
-0.000809484091669 0.000946276474887 0
-0.000842728121329 0.000918154285911 0
-0.000874994668107 0.000888863674631 0
-0.000906242648539 0.000858438634845 0
-0.000936432162015 0.000826914605476 0
-0.000965524541634 0.000794328429394 0
-0.000993482403617 0.000760718310434 0
-0.00102026969523 0.000726123768692 0
-0.00104585174114 0.000690585594119 0
-0.00107019528817 0.000654145798491 0
-0.00109326854833 0.000616847565792 0
-0.0011150412402 0.000578735201093 0
-0.00113548462845 0.000539854077959 0
-0.00115457156154 0.000500250584468 0
-0.00117227650758 0.000459972067896 0
-0.00118857558821 0.000419066778142 0
-0.00120344661049 0.000377583809944 0
-0.00121686909684 0.000335573043978 0
-0.00122882431285 0.000293085086892 0
-0.00123929529301 0.000250171210356 0
-0.00124826686434 0.000206883289202 0
-0.00125572566784 0.00016327373872 0
-0.0012616601777 0.000119395451194 0
-0.00126606071834 7.53017317621e-05 0
-0.00126891947921 3.10462336511e-05 0
-0.00127023052729 -1.33171071018e-05 0
-0.00126998981733 -5.77341373847e-05 0
-0.00126819519972 -0.000102150553114 0
-0.0012648464262 -0.000146511965627 0
-0.00125994515302 -0.00019076396828 0
-0.00125349494199 -0.000234852203174 0
-0.00124550125905 -0.000278722427925 0
-0.00123597147051 -0.000322320582394 0
-0.00122491483704 -0.000365592855298 0
-0.0012123425052 -0.000408485750622 0
-0.00119826749676 -0.000450946153742 0
-0.00118270469561 -0.000492921397183 0
-0.00116567083239 -0.000534359325937 0
-0.00114718446688 -0.000575208362241 0
-0.00112726596803 -0.000615417569755 0
-0.00110593749179 -0.000654936717052 0
-0.00108322295672 -0.000693716340332 0
-0.00105914801733 -0.000731707805302 0
-0.00103374003537 -0.000768863368123 0
-0.00100702804883 -0.000805136235361 0
-0.000979042738958 -0.000840480622867 0
-0.000949816395149 -0.000874851813503 0
-0.000919382877797 -0.000908206213648 0
-0.000887777579202 -0.000940501408412 0
-0.000855037382504 -0.000971696215489 0
-0.000821200618734 -0.00100175073758 0
-0.000786307022023 -0.00103062641329 0
-0.000750397683013 -0.00105828606655 0
-0.000713515000538 -0.00108469395429 0
-0.000675702631618 -0.00110981581249 0
-0.000637005439837 -0.00113361890055 0
-0.000597469442159 -0.0011560720437 0
-0.000557141754245 -0.00117714567371 0
-0.000516070534338 -0.0011968118676 0
-0.000474304925785 -0.0012150443844 0
-0.000431894998256 -0.00123181869991 0
-0.000388891687745 -0.00124711203944 0
-0.000345346735407 -0.00126090340837 0
-0.000301312625317 -0.00127317362067 0
-0.000256842521226 -0.00128390532514 0
-0.000211990202379 -0.00129308302954 0
-0.000166809998489 -0.00130069312237 0
-0.000121356723925 -0.00130672389248 0
-7.5685611218e-05 -0.00131116554629 0
-2.98522439426e-05 -0.00131401022272 0
1.60875109273e-05 -0.00131525200577 0
6.20775711162e-05 -0.00131488693472 0
0.000108061707511 -0.00131291301198 0
0.00015398361291 -0.00130933020845 0
0.000199786970966 -0.00130414046661 0
0.000245415525253 -0.00129734770106 0
0.000290813148359 -0.00128895779673 0
0.000335923910918 -0.00127897860461 0
0.000380692150518 -0.00126741993512 0
0.000425062540369 -0.00125429354899 0
0.00046898015767 -0.00123961314583 0
0.000512390551583 -0.00122339435016 0
0.00055523981073 -0.00120565469525 0
0.000597474630118 -0.00118641360437 0
0.00063904237744 -0.0011656923699 0
0.000679891158629 -0.00114351412995 0
0.000719969882616 -0.00111990384281 0
0.000759228325196 -0.00109488825901 0
0.000797617191923 -0.00106849589124 0
0.000835088179959 -0.00104075698197 0
0.000871594038802 -0.00101170346901 0
0.000907088629803 -0.000981368948793 0
0.000941526984415 -0.000949788637718 0
0.000974865361089 -0.000916999331333 0
0.00100706130075 -0.000883039361577 0
0.00103807368078 -0.000847948552055 0
0.00106786276745 -0.000811768171415 0
0.00109639026667 -0.000774540884891 0
0.00112361937318 -0.000736310704048 0
0.00114951481781 -0.000697122934809 0
0.00117404291305 -0.000657024123811 0
0.00119717159673 -0.000616062003166 0
0.00121887047372 -0.000574285433672 0
0.00123911085567 -0.000531744346572 0
0.00125786579874 -0.000488489683897 0
0.00127511013921 -0.000444573337492 0
0.00129082052698 -0.000400048086781 0
0.00130497545685 -0.000354967535351 0
0.00131755529766 -0.000309386046433 0
0.00132854231908 -0.000263358677356 0
0.00133792071622 -0.000216941113049 0
0.00134567663175 -0.000170189598682 0
0.00135179817586 -0.000123160871513 0
0.00135627544365 -7.59120920355e-05 0
0.00135910053024 -2.85007745065e-05 0
0.00136026754339 1.90152830642e-05 0
0.00135977261366 6.65780693737e-05 0
0.00135761390214 0.000114129430651 0
0.00135379160567 0.000161611141759 0
0.00134830795957 0.000208964977489 0
0.00134116723791 0.000256132783962 0
0.0013323757512 0.000303056550039 0
0.00132194184168 0.000349678478665 0
0.00130987587599 0.000395941058058 0
0.0012961902355 0.000441787132642 0
0.00128089930397 0.000487159973654 0
0.00126401945287 0.000532003349325 0
0.00124556902424 0.000576261594555 0
0.00122556831097 0.000619879679992 0
0.00120403953483 0.000662803280433 0
0.00118100682199 0.000704978842458 0
0.00115649617621 0.000746353651216 0
0.00113053544966 0.000786875896276 0
0.00110315431149 0.000826494736467 0
0.00107438421401 0.000865160363619 0
0.00104425835677 0.00090282406513 0
0.00101281164835 0.000939438285276 0
0.000980080666045 0.000974956685197 0
0.000946103613383 0.00100933420146 0
0.000910920275675 0.00104252710317 0
0.000874571973493 0.00107449304749 0
0.000837101514221 0.00110519113356 0
0.000798553141707 0.00113458195474 0
0.000758972484087 0.00116262764905 0
0.000718406499826 0.00118929194783 0
0.000676903422058 0.0012145402225 0
0.000634512701274 0.00123833952934 0
0.000591284946443 0.00126065865234 0
0.000547271864621 0.00128146814391 0
0.000502526199125 0.00130074036355 0
0.000457101666357 0.00131844951429 0
0.000411052891332 0.001334571677 0
0.000364435342006 0.00134908484236 0
0.000317305262476 0.00136196894058 0
0.00026971960513 0.00137320586878 0
0.000221735961832 0.00138277951601 0
0.000173412494229 0.00139067578579 0
0.000124807863252 0.0013968826163 0
7.59811579113e-05 0.00140138999806 0
2.69918234615e-05 0.00140418998911 0
-2.21004109697e-05 0.00140527672768 0
-7.12356052054e-05 0.00140464644234 0
-0.000120353681205 0.00140229745961 0
-0.000169394496521 0.00139823020894 0
-0.00021829791794 0.00139244722519 0
-0.000267003895218 0.00138495314852 0
-0.000315452534812 0.00137575472164 0
-0.000363584173531 0.00136486078456 0
-0.000411339452002 0.00135228226668 0
-0.000458659387869 0.00133803217638 0
-0.000505485448634 0.00132212558795 0
-0.000551759624047 0.00130457962609 0
-0.000597424497954 0.00128541344776 0
-0.000642423319523 0.00126464822157 0
-0.000686700073751 0.00124230710466 0
-0.000730199551164 0.00121841521712 0
-0.000772867416629 0.00119299961393 0
-0.000814650277192 0.00116608925454 0
-0.000855495748854 0.00113771497001 0
-0.000895352522195 0.00110790942786 0
-0.000934170426785 0.00107670709461 0
-0.000971900494276 0.001044144196 0
-0.00100849502011 0.00101025867511 0
-0.00104390762377 0.000975090148205 0
-0.00107809330749 0.000938679858507 0
-0.00111100851331 0.000901070627941 0
-0.00114261117853 0.000862306806824 0
-0.00117286078934 0.000822434221636 0
-0.00120171843259 0.000781500120903 0
-0.00122914684581 0.000739553119261 0
-0.00125511046511 0.000696643139762 0
-0.00127957547116 0.000652821354504 0
-0.00130250983307 0.000608140123635 0
-0.00132388335014 0.000562652932824 0
-0.00134366769142 0.000516414329263 0
-0.00136183643301 0.000469479856272 0
-0.00137836509312 0.000421905986603 0
-0.00139323116475 0.000373750054502 0
-0.001406414146 0.000325070186622 0
-0.00141789556802 0.000275925231877 0
-0.0014276590204 0.0002263746903 0
-0.00143569017417 0.000176478641015 0
-0.00144197680221 0.000126297669396 0
-0.00144650879714 7.58927935025e-05 0
-0.00144927818664 2.53253898875e-05 0
-0.00145027914618 -2.53428811398e-05 0
-0.00144950800905 -7.60501506999e-05 0
-0.0014469632739 -0.000126734416889 0
-0.0014426456095 -0.000177333620589 0
-0.00143655785693 -0.000227785721459 0
-0.00142870502907 -0.000278028773996 0
-0.00141909430745 -0.000328001003594 0
-0.00140773503637 -0.00037764088249 0
-0.00139463871449 -0.00042688720552 0
-0.0013798189836 -0.000475679165571 0
-0.0013632916149 -0.000523956428655 0
-0.00134507449254 -0.000571659208504 0
-0.00132518759462 -0.000618728340598 0
-0.00130365297151 -0.000665105355522 0
-0.00128049472171 -0.000710732551578 0
-0.00125573896507 -0.000755553066553 0
-0.00122941381356 -0.000799510948552 0
-0.00120154933947 -0.000842551225815 0
-0.0011721775413 -0.000884619975421 0
-0.0011413323071 -0.000925664390804 0
-0.00110904937553 -0.000965632847986 0
-0.00107536629457 -0.00100447497046 0
-0.00104032237795 -0.0010421416926 0
-0.00100395865936 -0.00107858532162 0
-0.000966317844515 -0.00111375959782 0
-0.000927444261043 -0.00114761975329 0
-0.000887383806383 -0.00118012256872 0
-0.000846183893646 -0.00121122642853 0
-0.000803893395557 -0.001240891374 0
-0.000760562586533 -0.00126907915449 0
-0.000716243082958 -0.00129575327662 0
-0.000670987781739 -0.00132087905137 0
-0.000624850797201 -0.00134442363899 0
-0.000577887396412 -0.00136635609181 0
-0.000530153933004 -0.00138664739464 0
-0.000481707779568 -0.00140527050295 0
-0.00043260725872 -0.00142220037869 0
-0.000382911572896 -0.00143741402362 0
-0.000332680732986 -0.00145089051029 0
-0.000281975485873 -0.0014626110104 0
-0.000230857240975 -0.00147255882074 0
-0.000179387995881 -0.00148071938648 0
-0.000127630261156 -0.00148708032191 0
-7.56469844269e-05 -0.00149163142845 0
-2.35014738258e-05 -0.00149436471017 0
2.87426791098e-05 -0.00149527438647 0
8.10216769865e-05 -0.00149435690211 0
0.000133271594461 -0.00149161093459 0
0.000185428456406 -0.00148703739869 0
0.00023742831624 -0.0014806394484 0
0.00028920733433 -0.00147242247595 0
0.000340701856361 -0.00146239410825 0
0.000391848491588 -0.00145056420048 0
0.000442584190866 -0.00143694482699 0
0.000492846324364 -0.00142155026945 0
0.000542572758867 -0.00140439700228 0
0.000591701934575 -0.00138550367535 0
0.000640172941296 -0.00136489109404 0
0.000687925593947 -0.00134258219658 0
0.00073490050726 -0.00131860202877 0
0.000781039169613 -0.00129297771608 0
0.000826284015883 -0.00126573843318 0
0.000870578499233 -0.00123691537084 0
0.000913867161746 -0.00120654170044 0
0.000956095703821 -0.00117465253589 0
0.000997211052232 -0.00114128489319 0
0.00103716142678 -0.00110647764756 0
0.00107589640544 -0.00107027148826 0
0.00111336698795 -0.00103270887113 0
0.00114952565768 -0.000993833968875 0
0.00118432644186 -0.000953692619198 0
0.00121772496988 -0.00091233227083 0
0.00124967852984 -0.000869801927499 0
0.00128014612296 -0.000826152089923 0
0.00130908851615 -0.000781434695894 0
0.00133646829234 -0.000735703058525 0
0.00136224989874 -0.000689011802722 0
0.00138639969281 -0.00064141679997 0
0.001408885986 -0.000592975101503 0
0.00142967908513 -0.000543744869945 0
0.00144875133137 -0.000493785309492 0
0.00146607713677 -0.000443156594732 0
0.00148163301835 -0.000391919798181 0
0.00149539762958 -0.000340136816622 0
0.00150735178934 -0.000287870296338 0
0.00151747850823 -0.000235183557333 0
0.00152576301221 -0.000182140516623 0
0.00153219276366 -0.000128805610703 0
0.00153675747954 -7.52437172626e-05 0
0.00153944914702 -2.15200762789e-05 0
0.00154026203615 3.22997894538e-05 0
0.00153919270992 8.61501542351e-05 0
0.00153624003137 0.000139965169724 0
0.00153140516802 0.000193678945458 0
0.00152469159338 0.000247225629528 0
0.00151610508572 0.000300539489312 0
0.00150565372389 0.000353554992159 0
0.0014933478805 0.000406206885946 0
0.00147920021208 0.000458430279378 0
0.00146322564657 0.000510160721961 0
0.00144544136794 0.000561334283532 0
0.00142586679803 0.000611887633256 0
0.00140452357568 0.000661758117989 0
0.00138143553301 0.000710883839906 0
0.0013566286691 0.00075920373331 0
0.00133013112089 0.000806657640518 0
0.00130197313143 0.000853186386722 0
0.0012721870156 0.000898731853756 0
0.0012408071231 0.000943237052647 0
0.00120786979903 0.000986646194884 0
0.00117341334188 0.00102890476231 0
0.00113747795914 0.00106995957551 0
0.00110010572046 0.00110975886074 0
0.0010613405085 0.00114825231506 0
0.0010212279675 0.00118539116993 0
0.000979815449561 0.00122112825286 0
0.000937151958875 0.00125541804724 0
0.000893288093754 0.00128821675023 0
0.000848275986687 0.00131948232863 0
0.000802169242426 0.00134917457256 0
0.000755022874191 0.0013772551471 0
0.000706893238063 0.00140368764161 0
0.00065783796565 0.00142843761681 0
0.000607915895107 0.00145147264943 0
0.000557187000585 0.00147276237451 0
0.000505712320202 0.00149227852524 0
0.000453553882613 0.00150999497019 0
0.000400774632281 0.00152588774808 0
0.000347438353524 0.00153993509986 0
0.000293609593439 0.00155211749813 0
0.000239353583798 0.00156241767394 0
0.000184736161995 0.00157082064074 0
0.000129823691165 0.00157731371565 0
7.46829795489e-05 0.00158188653791 0
1.9381199211e-05 0.0015845310845 0
-3.60141957855e-05 0.00158524168288 0
-9.14355516569e-05 0.00158401502095 0
-0.000146815097524 0.00158085015404 0
-0.000202085028282 0.00157574850909 0
-0.000257177587624 0.00156871388583 0
-0.000312025151094 0.00155975245515 0
-0.000366560309102 0.00154887275448 0
-0.000420715949762 0.00153608568034 0
-0.000474425341479 0.00152140447795 0
-0.000527622215169 0.0015048447279 0
-0.000580240846016 0.00148642433005 0
-0.000632216134667 0.00146616348448 0
-0.000683483687754 0.00144408466959 0
-0.000733979897659 0.00142021261749 0
-0.000783642021411 0.00139457428646 0
-0.000832408258623 0.00136719883073 0
-0.000880217828371 0.00133811756749 0
-0.000927011044916 0.00130736394126 0
-0.000972729392183 0.00127497348554 0
-0.0010173155969 0.0012409837819 0
-0.00106071370028 0.00120543441652 0
-0.00110286912824 0.00116836693413 0
-0.00114372875992 0.00112982478962 0
-0.00118324099463 0.00108985329717 0
-0.00122135581685 0.00104849957703 0
-0.00125802485955 0.00100581250005 0
-0.00129320146541 0.000961842630006 0
-0.00132684074615 0.000916642163767 0
-0.00135889963966 0.000870264869353 0
-0.00138933696503 0.000822766022045 0
-0.00141811347529 0.000774202338533 0
-0.00144519190792 0.000724631909232 0
-0.00147053703292 0.000674114128826 0
-0.00149411569845 0.000622709625125 0
-0.00151589687405 0.000570480186328 0
-0.00153585169123 0.000517488686772 0
-0.00155395348148 0.000463799011259 0
-0.00157017781171 0.000409475978051 0
-0.00158450251685 0.000354585260626 0
-0.00159690772985 0.000299193308292 0
-0.00160737590881 0.000243367265748 0
-0.00161589186133 0.000187174891704 0
-0.00162244276601 0.000130684476632 0
-0.00162701819103 7.39647597854e-05 0
-0.00162961010993 1.70848455472e-05 0
-0.00163021291431 -3.98858807576e-05 0
-0.00162882342372 -9.68778375038e-05 0
-0.0016254408925 -0.00015382133175 0
-0.00162006701367 -0.000210646644464 0
-0.00161270591986 -0.000267284115879 0
-0.00160336418121 -0.00032366423089 0
-0.00159205080032 -0.000379717704369 0
-0.00157877720416 -0.00043537556631 0
-0.00156355723307 -0.000490569246679 0
-0.00154640712673 -0.000545230659893 0
-0.00152734550719 -0.000599292288797 0
-0.00150639335898 -0.000652687268048 0
-0.00148357400627 -0.000705349466805 0
-0.00145891308717 -0.000757213570618 0
-0.00143243852508 -0.000808215162411 0
-0.00140418049738 -0.000858290802472 0
-0.00137417140107 -0.000907378107335 0
-0.0013424458159 -0.000955415827468 0
-0.00130904046461 -0.00100234392366 0
-0.00127399417055 -0.00104810364202 0
-0.00123734781269 -0.00109263758751 0
-0.00119914427804 -0.00113588979583 0
-0.00115942841155 -0.00117780580377 0
-0.00111824696357 -0.00121833271766 0
-0.00107564853485 -0.00125741928007 0
-0.00103168351932 -0.00129501593458 0
-0.000986404044489 -0.00133107488849 0
-0.000939863909691 -0.0013655501735 0
-0.000892118522241 -0.00139839770422 0
-0.000843224831498 -0.00142957533439 0
-0.000793241260976 -0.00145904291086 0
-0.000742227638567 -0.00148676232517 0
-0.000690245124963 -0.00151269756265 0
-0.000637356140351 -0.00153681474908 0
-0.00058362428948 -0.00155908219471 0
-0.000529114285192 -0.00157947043572 0
-0.000473891870494 -0.00159795227294 0
-0.000418023739283 -0.00161450280792 0
-0.000361577455806 -0.00162909947613 0
-0.000304621372957 -0.00164172207745 0
-0.000247224549516 -0.00165235280367 0
-0.000189456666415 -0.00166097626319 0
-0.000131387942151 -0.00166757950279 0
-7.30890474328e-05 -0.00167215202633 0
-1.46310191742e-05 -0.00167468581063 0
4.39148260621e-05 -0.00167517531816 0
0.000102476979069 -0.00167361750684 0
0.000160983825338 -0.00167001183673 0
0.000219363732635 -0.00166436027364 0
0.0002775451387 -0.00165666728975 0
0.00033545663897 -0.00164693986109 0
0.000393027074209 -0.00163518746198 0
0.000450185617939 -0.00162142205638 0
0.000506861863574 -0.00160565808622 0
0.000562985911138 -0.00158791245665 0
0.000618488453462 -0.00156820451825 0
0.000673300861764 -0.00154655604623 0
0.000727355270495 -0.00152299121664 0
0.000780584661346 -0.00149753657962 0
0.000832922946327 -0.00147022102968 0
0.000884305049792 -0.00144107577309 0
0.000934666989326 -0.00141013429242 0
0.000983945955391 -0.00137743230818 0
0.00103208038963 -0.00134300773777 0
0.0010790100617 -0.00130690065161 0
0.00112467614463 -0.00126915322662 0
0.0011690212885 -0.00122980969704 0
0.00121198969238 -0.00118891630272 0
0.00125352717453 -0.00114652123481 0
0.00129358124063 -0.00110267457909 0
0.00133210115004 -0.00105742825683 0
0.00136903797999 -0.00101083596337 0
0.00140434468765 -0.000962953104479 0
0.00143797616994 -0.000913836730488 0
0.00146988932098 -0.000863545468371 0
0.00150004308729 -0.000812139451799 0
0.00152839852043 -0.000759680249272 0
0.00155491882714 -0.000706230790407 0
0.00157956941696 -0.000651855290471 0
0.00160231794712 -0.000596619173254 0
0.00162313436479 -0.000540588992365 0
0.00164199094658 -0.000483832351064 0
0.00165886233515 -0.0004264178207 0
0.00167372557306 -0.000368414857879 0
0.00168656013369 -0.000309893720444 0
0.00169734794917 -0.000250925382383 0
0.00170607343539 -0.000191581447751 0
0.00171272351399 -0.000131934063729 0
0.00171728763123 -7.20558329129e-05 0
0.00171975777393 -1.20197249402e-05 0
0.00172012848218 4.81010124306e-05 0
0.00171839685899 0.000108232942687 0
0.00171456257684 0.000168302530266 0