<?xml version="1.0"?>
<VTKFile type="PolyData" version="0.1" byte_order="LittleEndian">
  <PolyData>
    <Piece NumberOfPoints="1140" NumberOfLines="1" NumberOfVerts="240">
      <PointData Scalars="class_id">
        <DataArray type="Int32" Name="class_id" format="ascii">0 0 0 0 0 0 0 0 0 0 0 0 0 0 0 0 0 0 0 0 0 0 0 0 0 0 0 0 0 0 0 0 0 0 0 0 0 0 0 0 0 0 0 0 0 0 0 0 0 0 0 0 0 0 0 0 0 0 0 0 0 0 0 0 0 0 0 0 0 0 0 0 0 0 0 0 0 0 0 0 0 0 0 0 0 0 0 0 0 0 0 0 0 0 0 0 0 0 0 0 0 0 0 0 0 0 0 0 0 0 0 0 0 0 0 0 0 0 0 0 0 0 0 0 0 0 0 0 0 0 0 0 0 0 0 0 0 0 0 0 0 0 0 0 0 0 0 0 0 0 0 0 0 0 0 0 0 0 0 0 0 0 0 0 0 0 0 0 0 0 0 0 0 0 0 0 0 0 0 0 0 0 0 0 0 0 0 0 0 0 0 0 0 0 0 0 0 0 0 0 0 0 0 0 0 0 0 0 0 0 0 0 0 0 0 0 0 0 0 0 0 0 0 0 0 0 0 0 0 0 0 0 0 0 0 0 0 0 0 0 0 0 0 0 0 0 0 0 0 0 0 0 0 0 0 0 0 0 0 0 0 0 0 0 0 0 0 0 0 0 0 0 0 0 0 0 0 0 0 0 0 0 0 0 0 0 0 0 0 0 0 0 0 0 0 0 0 0 0 0 0 0 0 0 0 0 0 0 0 0 0 0 0 0 0 0 0 0 0 0 0 0 0 0 0 0 0 0 0 0 0 0 0 0 0 0 0 0 0 0 0 0 0 0 0 0 0 0 0 0 0 0 0 0 0 0 0 0 0 0 0 0 0 0 0 0 0 0 0 0 0 0 0 0 0 0 0 0 0 0 0 0 0 0 0 0 0 0 0 0 0 0 0 0 0 0 0 0 0 0 0 0 0 0 0 0 0 0 0 0 0 0 0 0 0 0 0 0 0 0 0 0 0 0 0 0 0 0 0 0 0 0 0 0 0 0 0 0 0 0 0 0 0 0 0 0 0 0 0 0 0 0 0 0 0 0 0 0 0 0 0 0 0 0 0 0 0 0 0 0 0 0 0 0 0 0 0 0 0 0 0 0 0 0 0 0 0 0 0 0 0 0 0 0 0 0 0 0 0 0 0 0 0 0 0 0 0 0 0 0 0 0 0 0 0 0 0 0 0 0 0 0 0 0 0 0 0 0 0 0 0 0 0 0 0 0 0 0 0 0 0 0 0 0 0 0 0 0 0 0 0 0 0 0 0 0 0 0 0 0 0 0 0 0 0 0 0 0 0 0 0 0 0 0 0 0 0 0 0 0 0 0 0 0 0 0 0 0 0 0 0 0 0 0 0 0 0 0 0 0 0 0 0 0 0 0 0 0 0 0 0 0 0 0 0 0 0 0 0 0 0 0 0 0 0 0 0 0 0 0 0 0 0 0 0 0 0 0 0 0 0 0 0 0 0 0 0 0 0 0 0 0 0 0 0 0 0 0 0 0 0 0 0 0 0 0 0 0 0 0 0 0 0 0 0 0 0 0 0 0 0 0 0 0 0 0 0 0 0 0 0 0 0 0 0 0 0 0 0 0 0 0 0 0 0 0 0 0 0 0 0 0 0 0 0 0 0 0 0 0 0 0 0 0 0 0 0 0 0 0 0 0 0 0 0 0 0 0 0 0 0 0 0 0 0 0 0 0 0 0 0 0 0 0 0 0 0 0 0 0 0 0 0 0 0 0 0 0 0 0 0 0 0 0 0 0 0 0 0 0 0 0 0 0 0 0 0 0 0 0 0 0 0 0 0 0 0 0 0 0 0 0 0 0 0 0 0 0 0 0 0 0 0 0 0 0 0 0 0 0 0 0 0 0 0 0 0 0 0 0 0 0 0 0 0 0 0 0 0 0 0 0 0 0 0 0 0 0 0 0 0 0 0 0 0 0 0 0 0 0 0 0 0 0 0 0 0 0 0 0 0 0 0 0 0 0 0 0 0 0 0 0 0 0 0 0 0 0 0 0 0 0 0 0 0 0 0 0 0 0 2 2 2 2 2 2 2 2 2 2 2 2 2 2 2 2 2 2 2 2 2 2 2 2 2 2 2 2 2 2 2 2 2 2 2 2 2 2 2 2 2 2 2 2 2 2 2 2 2 2 2 2 2 2 2 2 2 2 2 2 2 2 2 2 2 2 2 2 2 2 2 2 2 2 2 2 2 2 2 2 2 2 2 2 2 2 2 2 2 2 2 2 2 2 2 2 2 2 2 2 2 2 2 2 2 2 2 2 2 2 2 2 2 2 2 2 2 2 2 2 1 1 1 1 1 1 1 1 1 1 1 1 1 1 1 1 1 1 1 1 1 1 1 1 1 1 1 1 1 1 1 1 1 1 1 1 1 1 1 1 1 1 1 1 1 1 1 1 1 1 1 1 1 1 1 1 1 1 1 1 1 1 1 1 1 1 1 1 1 1 1 1 1 1 1 1 1 1 1 1 1 1 1 1 1 1 1 1 1 1 1 1 1 1 1 1 1 1 1 1 1 1 1 1 1 1 1 1 1 1 1 1 1 1 1 1 1 1 1 1</DataArray>
      </PointData>
      <Points>
        <DataArray type="Float32" NumberOfComponents="3" format="ascii">
0.000779879307986 0 0
0.000780783351668 3.59177088868e-05 0
0.000780030415981 7.19183378553e-05 0
0.000777614801656 0.000107925319689 0
0.00077353435325 0.000143861739276 0
0.000767790479028 0.000179650497885 0
0.000760388163232 0.000215214478542 0
0.00075133597066 0.000250476712133 0
0.000740646043519 0.000285360543892 0
0.000728334090522 0.000319789799907 0
0.000714419368237 0.000353688953278 0
0.000698924654668 0.000386983289578 0
0.000681876215123 0.000419599071241 0
0.000663303760397 0.000451463700526 0
0.000643240397326 0.000482505880689 0
0.000621722571799 0.000512655775019 0
0.000598790004313 0.000541845163365 0
0.000574485618187 0.000570007595824 0
0.000548855460553 0.000597078543229 0
0.000521948616273 0.000622995544115 0
0.000493817114936 0.00064769834781 0
0.000464515831116 0.000671129053339 0
0.000434102378069 0.00069323224382 0
0.000402636995079 0.000713955116043 0
0.000370182428681 0.000733247604927 0
0.000336803807972 0.000751062502569 0
0.00030256851428 0.00076735557161 0
0.000267546045438 0.000782085652636 0
0.000231807874935 0.000795214765376 0
0.000195427306238 0.000806708203432 0
0.000158479322573 0.000816534622334 0
0.000121040432475 0.000824666120679 0
8.31885114285e-05 0.000831078314168 0
4.50026399191e-05 0.000835750402351 0
6.56293824139e-06 0.000838665227893 0
-3.20496015999e-05 0.000839809328222 0
-7.07532865374e-05 0.000839172979404 0
-0.00010946589528 0.000836750232127 0
-0.000148104852976 0.000832538939681 0
-0.000186587407333 0.000826540777846 0
-0.000224830805814 0.000818761256607 0
-0.000262752473533 0.000809209723652 0
-0.000300270191467 0.000797899359597 0
-0.000337302274604 0.000784847164926 0
-0.000373767749634 0.000770073938649 0
-0.000409586531802 0.000753604248673 0
-0.000444679600533 0.000735466393936 0
-0.000478969173453 0.000715692358349 0
-0.00051237887841 0.000694317756611 0
-0.00054483392313 0.000671381771982 0
-0.000576261262121 0.000646927086132 0
-0.000606589760451 0.000620999801165 0
-0.000635750354059 0.000593649353974 0
-0.000663676206195 0.000564928423085 0
-0.000690302859687 0.00053489282814 0
-0.000715568384645 0.000503601422242 0
-0.000739413521295 0.000471115977338 0
-0.000761781817607 0.000437501062879 0
-0.000782619761393 0.000402823917989 0
-0.00080187690658 0.000367154317394 0
-0.000819505993355 0.000330564431379 0
-0.000835463061907 0.000293128680048 0
-0.000849707559487 0.000254923582195 0
-0.000862202440537 0.000216027599073 0
-0.000872914259645 0.000176520973395 0
-0.000881813257097 0.000136485563886 0
-0.000888873436811 9.60046757385e-05 0
-0.000894072636466 5.51628873135e-05 0
-0.000897392589631 1.40458734476e-05 0
-0.000898818979748 -2.72597742586e-05 0
-0.000898341485805 -6.86667297987e-05 0
-0.000895953819585 -0.00011008711738 0
-0.000891653754367 -0.000151432697915 0
-0.000885443144995 -0.000192615056986 0
-0.000877327939238 -0.000233545793885 0
-0.000867318180378 -0.000274136711327 0
-0.000855428001001 -0.000314300005423 0
-0.000841675607957 -0.000353948455512 0
-0.000826083258508 -0.00039299561343 0
-0.000808677227664 -0.000431355991824 0
-0.000789487766762 -0.000468945251081 0
-0.000768549053334 -0.000505680384474 0
-0.000745899132345 -0.000541479901126 0
-0.000721579848904 -0.000576264006369 0
-0.00069563677255 -0.00060995477912 0
-0.000668119113252 -0.000642476345874 0
-0.000639079629275 -0.00067375505092 0
-0.000608574527085 -0.000703719622408 0
-0.000576663353472 -0.00073230133389 0
-0.0005434088801 -0.00075943416097 0
-0.000508876980713 -0.000785054932712 0
-0.000473136501219 -0.000809103477458 0
-0.000436259122928 -0.000831522762718 0
-0.000398319219196 -0.000852259028818 0
-0.000359393705771 -0.000871261915988 0
-0.000319561885141 -0.000888484584599 0
-0.00027890528519 -0.000903883828263 0
-0.000237507492505 -0.000917420179521 0
-0.000195453980658 -0.000929058007882 0
-0.000152831933827 -0.000938765609955 0
-0.000109730066113 -0.000946515291466 0
-6.62384369302e-05 -0.000952283440951 0
-2.24482628595e-05 -0.000956050594931 0
2.15482736581e-05 -0.000957801494415 0
6.56582183692e-05 -0.000957525132558 0
0.000109788041599 -0.000955214793357 0
0.000153843836566 -0.000950868081269 0
0.000197731519203 -0.000944486941639 0
0.000241357029058 -0.000936077671893 0
0.000284626530844 -0.000925650923405 0
0.000327446616207 -0.000913221694034 0
0.000369724505285 -0.00089880931129 0
0.000411368247607 -0.000882437406148 0
0.00045228692192 -0.000864133877531 0
0.000492390834489 -0.000843930847504 0
0.000531591715448 -0.00082186460724 0
0.000569802912775 -0.000797975553861 0
0.000606939583458 -0.000772308118232 0
0.000642918881437 -0.00074491068386 0
0.000677660141901 -0.000715835497014 0
0.000711085061541 -0.000685138568262 0
0.000743117874344 -0.000652879565578 0
0.000773685522541 -0.000619121699239 0
0.000802717822337 -0.000583931598728 0
0.000830147624018 -0.000547379181873 0
0.00085591096611 -0.000509537516494 0
0.000879947223206 -0.00047048267481 0
0.00090219924714 -0.000430293580915 0
0.000922613501178 -0.000389051851611 0
0.000941140186912 -0.000346841630933 0
0.000957733363561 -0.000303749418689 0
0.000972351059397 -0.000259863893366 0
0.000984955375028 -0.000215275729777 0
0.000995512578301 -0.000170077411802 0
0.00100399319057 -0.000124363040631 0
0.00101037206413 -7.82281388888e-05 0
0.00101462845066 -3.17694510603e-05 0
0.00101674606035 1.49152593686e-05 0
0.00101671311181 6.17274156333e-05 0
0.00101452237239 0.000108567835839 0
0.00101017118882 0.0001553369431 0
0.0010036615083 0.000201934977215 0
0.000994999889632 0.000248262207445 0
0.000984197504579 0.000294219145923 0
0.000971270129332 0.000339706761251 0
0.00095623812606 0.000384626691815 0
0.000939126414577 0.000428881458373 0
0.000919964434143 0.000472374675443 0
0.000898786095452 0.000515011261037 0
0.000875629722877 0.000556697644295 0
0.000850537987064 0.000597341970546 0
0.000823557827995 0.000636854303368 0
0.000794740368643 0.000675146823192 0
0.000764140819387 0.000712134022007 0
0.000731818373354 0.000747732893753 0
0.000697836092886 0.000781863119965 0
0.000662260787352 0.000814447250249 0
0.000625162882528 0.000845410877212 0
0.000586616281818 0.000874682805417 0
0.000546698219565 0.000902195214013 0
0.000505489106763 0.000927883812648 0
0.00046307236946 0.000951687990326 0
0.000419534280191 0.000973550956849 0
0.000374963782769 0.00099341987653 0
0.000329452310794 0.00101124599387 0
0.000283093600253 0.00102698475087 0
0.000235983496586 0.00104059589576 0
0.000188219756625 0.00105204358282 0
0.000139901845811 0.00106129646308 0
9.11307311039e-05 0.00106832776574 0
4.20086700232e-05 0.0010731153699 0
-7.36100373741e-06 0.00107564186672 0
-5.6874097682e-05 0.00107589461161 0
-0.000106425780405 0.00107386576632 0
-0.000155910803545 0.00106955233102 0
-0.000205223725326 0.00106295616595 0
-0.000254259135215 0.00105408400288 0
-0.000302911879217 0.00104294744609 0
-0.000351077285324 0.00102956296291 0
-0.000398651388632 0.00101395186389 0
-0.00044553115565 0.000996140272482 0
-0.000491614707314 0.000976159084335 0
-0.000536801540216 0.000954043916258 0
-0.00058099274558 0.000929835044915 0
-0.0006240912255 0.000903577335347 0
-0.000666001905972 0.000875320159464 0
-0.000706631946249 0.000845117304624 0
-0.000745890944064 0.000813026872495 0
-0.000783691136266 0.000779111168362 0
-0.000819947594422 0.000743436581096 0
-0.000854578414953 0.000706073454025 0
-0.000887504903383 0.000667095946935 0
-0.000918651752278 0.000626581889489 0
-0.000947947212487 0.000584612626344 0
-0.000975323257287 0.000541272854271 0
-0.00100071573907 0.00049665045161 0
-0.00102406453818 0.000450836300396 0
-0.00104531370364 0.00040392410152 0
-0.00106441158534 0.000356010183297 0
-0.00108131095739 0.000307193303835 0
-0.00109596913251 0.000257574447604 0
-0.0011083480669 0.000207256616635 0
-0.0011184144556 0.000156344616767 0
-0.00112613981797 0.000104944839396 0
-0.00113150057308 5.31650391717e-05 0
-0.00113447810488 1.11410811995e-06 0
-0.00113505881695 -5.10981533552e-05 0
-0.00113323417663 -0.000103361268091 0
-0.0011290007485 -0.000155564315926 0
-0.00112236021707 -0.000207596169108 0
-0.00111331939851 -0.000259345728841 0
-0.00110189024152 -0.000310702162484 0
-0.0010880898172 -0.000361555140874 0
-0.00107194029792 -0.000411795075285 0
-0.00105346892525 -0.000461313353502 0
-0.0010327079669 -0.000510002574503 0
-0.0010096946629 -0.000557756781253 0
-0.000984471160829 -0.000604471691085 0
-0.000957084440506 -0.00065004492319 0
-0.000927586228042 -0.000694376222706 0
-0.000896032899525 -0.000737367680915 0
-0.000862485374476 -0.000778923951084 0
-0.000827008999281 -0.000818952459441 0
-0.000789673420813 -0.000857363610859 0
-0.000750552450501 -0.000894070988764 0
-0.000709723919093 -0.000928991548831 0
-0.000667269522409 -0.000962045806037 0
-0.000623274658385 -0.000993158014655 0
-0.000577828255725 -0.00102225634077 0
-0.000531022594517 -0.00104927302694 0
-0.000482953119162 -0.00107414454861 0
-0.000433718244003 -0.00109681176198 0
-0.000383419152044 -0.00111722004283 0
-0.000332159587171 -0.00113531941622 0
-0.000280045640302 -0.00115106467655 0
-0.000227185529914 -0.00116441549774 0
-0.000173689377379 -0.00117533653342 0
-0.000119668977609 -0.00118379750663 0
-6.5237565448e-05 -0.00118977328906 0
-1.05095783383e-05 -0.00119324396942 0
4.43995842737e-05 -0.00119419491093 0
9.93738042656e-05 -0.00119261679767 0
0.000154296490398 -0.00118850566968 0
0.000209050825583 -0.00118186294679 0
0.000263520015332 -0.00117269544091 0
0.000317587536869 -0.00116101535695 0
0.000371137388358 -0.00114684028213 0
0.000424054337731 -0.00113019316385 0
0.000476224170567 -0.00111110227596 0
0.000527533936502 -0.0010896011736 0
0.000577872193629 -0.00106572863665 0
0.000627129250365 -0.00103952860185 0
0.000675197404257 -0.00101105008366 0
0.00072197117721 -0.000980347084158 0
0.000767347546626 -0.00094747849193 0
0.000811226171937 -0.000912507970312 0
0.000853509616051 -0.000875503835086 0
0.000894103561211 -0.000836538921919 0
0.000932917018797 -0.000795690443765 0
0.000969862532594 -0.000753039838537 0
0.00100485637509 -0.000708672607325 0
0.00103781873637 -0.00066267814349 0
0.0010686739051 -0.000615149552982 0
0.00109735044139 -0.000566183466222 0
0.00112378134085 -0.000515879841946 0
0.00114790418981 -0.000464341763402 0
0.00116966131096 -0.000411675227312 0
0.00118899989949 -0.000357988926037 0
0.00120587214904 -0.000303394023381 0
0.00122023536741 -0.000248003924515 0
0.00123205208163 -0.000191934040476 0
0.0012412901322 -0.000135301547744 0
0.00124792275623 -7.82251433937e-05 0
0.00125192865931 -2.0824796332e-05 0
0.00125329207584 3.67785048601e-05 0
0.00125200281783 9.44630069443e-05 0
0.0012480563118 0.000152106449369 0
0.00124145362391 0.000209586323396 0
0.00123220147306 0.000266780132453 0
0.00122031223196 0.000323565653176 0
0.00120580391615 0.000379821196562 0
0.00118870016098 0.000435425868694 0
0.00116903018645 0.000490259830471 0
0.00114682875013 0.000544204555784 0
0.00112213608808 0.000597143087588 0
0.00109499784391 0.000648960291305 0
0.00106546498619 0.00069954310503 0
0.00103359371417 0.000748780785974 0
0.000999445352155 0.000796565152622 0
0.000963086232663 0.000842790822073 0
0.000924587568536 0.000887355442038 0
0.000884025314343 0.000930159916996 0
0.000841480017284 0.000971108627995 0
0.000797036657892 0.00101010964563 0
0.000750784480859 0.0010470749357 0
0.000702816816318 0.00108192055711 0
0.000653230891935 0.00111456685159 0
0.000602127636181 0.00114493862469 0
0.000549611473206 0.00117296531785 0
0.0004957901097 0.00119858117097 0
0.000440774314197 0.00122172537512 0
0.000384677689266 0.00124234221522 0
0.000327616437061 0.00126038120213 0
0.000269709118707 0.00127579719394 0
0.000211076408021 0.00128855050623 0
0.000151840840096 0.00129860701094 0
9.21265552391e-05 0.00130593822362 0
3.20590388347e-05 0.00131052137898 0
-2.82351423506e-05 0.00131233949425 0
-8.86286068504e-05 0.0013113814206 0
-0.000148993427613 0.00130764188204 0
-0.000209201402978 0.00130112150206 0
-0.000269124328941 0.00129182681764 0
-0.000328634272131 0.00127977028077 0
-0.000387603842911 0.00126497024731 0
-0.00044590646803 0.00124745095323 0
-0.000503416662235 0.00122724247831 0
-0.000560010298264 0.00120438069718 0
-0.000615564874635 0.001178907218 0
-0.000669959780662 0.00115086930862 0
-0.000723076558113 0.00112031981065 0
-0.000774799158956 0.00108731704125 0
-0.00082501419862 0.00105192468312 0
-0.00087361120423 0.00101421166272 0
-0.000920482857262 0.000974252016983 0
-0.000965525230098 0.000932124748838 0
-0.00100863801595 0.000887913671741 0
-0.00104972475166 0.000841707243566 0
-0.00108869303284 0.000793598390172 0
-0.00112545472095 0.000743684319005 0
-0.00115992614178 0.000692066323084 0
-0.00119202827493 0.000638849575794 0
-0.00122168693381 0.000584142916888 0
-0.00124883293587 0.000528058630123 0
-0.0012734022625 0.000470712213005 0
-0.00129533620841 0.000412222139096 0
-0.00131458151996 0.000352709613386 0
-0.00133109052237 0.000292298321221 0
-0.00134482123517 0.000231114171321 0
-0.00135573747596 0.000169285033408 0
-0.00136380895199 0.000106940471004 0
-0.00136901133942 4.42114699491e-05 0
-0.00137132635013 -1.87698367953e-05 0
-0.00137074178569 -8.18704474661e-05 0
-0.00136725157864 -0.000144956772368 0
-0.00136085582073 -0.000207894916695 0
-0.00135156077808 -0.000270550964703 0
-0.00133937889328 -0.000332791264631 0
-0.0013243287743 -0.000394482713772 0
-0.00130643517023 -0.000455493043074 0
-0.00128572893391 -0.000515691100671 0
-0.0012622469714 -0.000574947133732 0
-0.00123603217848 -0.000633133068026 0
-0.00120713336422 -0.000690122784599 0
-0.00117560516174 -0.000745792392963 0
-0.00114150792634 -0.000800020500213 0
-0.00110490762124 -0.000852688475477 0
-0.00106587569105 -0.000903680709136 0
-0.00102448892319 -0.000952884866236 0
-0.000980829297763 -0.00100019213355 0
-0.000934983825784 -0.00104549745972 0
-0.000887044376463 -0.00108869978802 0
-0.000837107493632 -0.00112970228111 0
-0.00078527420179 -0.00116841253738 0
-0.000731649802129 -0.00120474279841 0
-0.000676343658953 -0.00123861014695 0
-0.000619468976925 -0.00126993669515 0
-0.000561142569592 -0.00129864976252 0
-0.000501484619662 -0.00132468204316 0
-0.000440618431525 -0.00134797176203 0
-0.000378670176524 -0.00136846281979 0
-0.000315768631514 -0.00138610492586 0
-0.000252044911227 -0.00140085371947 0
-0.000187632195029 -0.00141267087836 0
-0.000122665448609 -0.00142152421491 0
-5.72811412071e-05 -0.00142738775932 0
8.38304104878e-06 -0.00143024182993 0
7.41884850744e-05 -0.00143007309011 0
0.000139995943435 -0.00142687459198 0
0.000205665828997 -0.00142064580642 0
0.000271058511012 -0.00141139263968 0
0.000336034611988 -0.00139912743614 0
0.000400455304743 -0.00138386896754 0
0.000464182608981 -0.00136564240832 0
0.00052707968677 -0.00134447929744 0
0.000589011136296 -0.00132041748641 0
0.000649843283248 -0.00129350107386 0
0.000709444469212 -0.00126378032656 0
0.00076768533646 -0.00123131158721 0
0.000824439108508 -0.00119615716902 0
0.000879581865841 -0.00115838523731 0
0.000932992816204 -0.00111806967844 0
0.000984554558865 -0.00107528995617 0
0.00103415334229 -0.00103013095587 0
0.00108167931462 -0.000982682816777 0
0.00112702676651 -0.000933040752701 0
0.00117009436559 -0.00088130486149 0
0.00121078538229 -0.000827579923656 0
0.0012490079063 -0.000771975190561 0
0.0012846750533 -0.000714604162586 0
0.0013177051615 -0.000655584357741 0
0.00134802197749 -0.000595037071182 0
0.00137555483097 -0.000533087126128 0
0.00140023879813 -0.000469862616681 0
0.00142201485299 -0.000405494643097 0
0.00144083000671 -0.000340117040036 0
0.00145663743426 -0.000273866098365 0
0.00146939658828 -0.000206880281088 0
0.0014790732999 -0.000139299933996 0
0.00148563986612 -7.12669916406e-05 0
0.00148907512372 -2.92467925007e-06 0
0.00148936450932 6.55827887893e-05 0
0.00148650010567 0.000134110513251 0
0.0014804806737 0.000202513216542 0
0.00147131167067 0.000270645550687 0
0.00145900525387 0.000338362406162 0
0.00144358027024 0.000405519220938 0
0.00142506223165 0.000471972289053 0
0.00140348327596 0.00053757906808 0
0.00137888211388 0.000602198484805 0
0.00135130396169 0.000665691238491 0
0.00132080046005 0.000727920101045 0
0.00128742957886 0.000788750213464 0
0.00125125550847 0.000848049377914 0
0.0012123485374 0.000905688344799 0
0.00117078491681 0.000961541094215 0
0.00112664671199 0.00101548511116 0
0.00108002164111 0.00106740165393 0
0.00103100290157 0.00111717601504 0
0.000979688984331 0.0011646977742 0
0.000926183476565 0.00120986104272 0
0.000870594852972 0.00125256469882 0
0.000813036256266 0.00129271261333 0
0.000753625267224 0.00133021386523 0
0.00069248366477 0.00136498294669 0
0.000629737176596 0.00139693995694 0
0.000565515220818 0.00142601078473 0
0.000499950639199 0.0014521272788 0
0.000433179422501 0.00147522740614 0
0.000365340428513 0.00149525539749 0
0.000296575093361 0.00151216187991 0
0.000227027136675 0.00152590399599 0
0.000156842261259 0.00153644550949 0
8.61678478622e-05 0.00154375689713 0
1.51526457081e-05 0.00154781542625 0
-5.6053540576e-05 0.00154860521828 0
-0.000127300166966 0.00154611729766 0
-0.000198436268322 0.00154034962632 0
-0.000269310778265 0.00153130712332 0
-0.000339772849979 0.00151900166987 0
-0.00040967217725 0.00150345209945 0
-0.000478859315064 0.0014846841732 0
-0.000547185999073 0.00146273054042 0
-0.000614505463262 0.00143763068445 0
-0.00068067275511 0.00140943085378 0
-0.000745545047598 0.00137818397869 0
-0.000808981947374 0.00134394957345 0
-0.00087084579841 0.00130679362437 0
-0.00093100198051 0.00126678846373 0
-0.000989319201999 0.00122401263001 0
-0.00104566978598 0.00117855071464 0
-0.00109992994954 0.00113049319543 0
-0.00115198007521 0.00107993625725 0
-0.00120170497428 0.00102698160008 0
-0.00124899414113 0.000971736234942 0
-0.00129374199826 0.000914312268146 0
-0.0013358481313 0.000854826674137 0
-0.00137521751356 0.000793401057568 0
-0.00141176071966 0.000730161404982 0
-0.00144539412761 0.000665237826643 0
-0.00147604010908 0.000598764289038 0
-0.00150362720727 0.000530878338606 0
-0.00152809030207 0.00046172081725 0
-0.00154937076205 0.000391435570238 0
-0.00156741658307 0.000320169147083 0
-0.00158218251299 0.000248070496029 0
-0.00159363016234 0.000175290652786 0
-0.00160172810064 0.000101982424157 0
-0.00160645193811 2.83000672189e-05 0
-0.00160778439256 -4.56010352614e-05 0
-0.00160571534138 -0.000119564702502 0
-0.00160024185829 -0.000193434285772 0
-0.00159136823502 -0.000267053000162 0
-0.00157910598757 -0.000340264257344 0
-0.00156347384717 -0.00041291199862 0
-0.00154449773586 -0.000484841027561 0
-0.00152221072672 -0.000555897341505 0
-0.00149665298888 -0.000625928461229 0
-0.0014678717172 -0.000694783758073 0
-0.00143592104699 -0.000762314777825 0
-0.00140086195369 -0.000828375560662 0
-0.00136276213787 -0.000892822956469 0
-0.00132169589564 -0.00095551693484 0
-0.00127774397478 -0.0010163208891 0
-0.00123099341685 -0.00107510193371 0
-0.00118153738559 -0.00113173119433 0
-0.00112947498195 -0.00118608409001 0
-0.00107491104606 -0.00123804060686 0
-0.00101795594667 -0.00128748556251 0
-0.000958725358289 -0.00133430886092 0
-0.000897340026694 -0.00137840573689 0
-0.000833925523067 -0.0014196769897 0
-0.000768611987415 -0.00145802920551 0
-0.000701533861727 -0.0014933749678 0
-0.000632829613432 -0.00152563305561 0
-0.00056264144972 -0.0015547286289 0
-0.000491115023325 -0.00158059340088 0
-0.000418399130369 -0.00160316579661 0
-0.000344645400897 -0.00162239109776 0
-0.000270007982746 -0.00163822157309 0
-0.000194643219413 -0.00165061659429 0
-0.000118709322583 -0.00165954273701 0
-4.23660400135e-05 -0.00166497386676 0
3.42256805333e-05 -0.00166689120951 0
0.0001109040306 -0.00166528340676 0
0.000187506682873 -0.001660146555 0
0.000263871134826 -0.00165148422938 0
0.000339835053442 -0.0016393074915 0
0.000415236620283 -0.00162363488139 0
0.000489914876173 -0.00160449239348 0
0.00056371006476 -0.00158191343674 0
0.000636463974227 -0.00155593877896 0
0.000708020276411 -0.00152661647527 0
0.000778224862621 -0.00149400178101 0
0.000846926175414 -0.00145815704918 0
0.000913975535631 -0.00141915161248 0
0.000979227463976 -0.00137706165044 0
0.00104253999645 -0.00133197004154 0
0.00110377499297 -0.00128396620096 0
0.00116279843844 -0.00123314590399 0
0.00121948073573 -0.0011796110956 0
0.00127369698981 -0.00112346968658 0
0.00132532728246 -0.00106483533647 0
0.00137425693705 -0.00100382722388 0
0.00142037677254 -0.000940569804714 0
0.00146358334653 -0.000875192558502 0
0.0015037791864 -0.000807829723716 0
0.00154087300837 -0.000738620022348 0
0.00157477992378 -0.000667706374428 0
0.00160542163222 -0.000595235603056 0
0.00163272660102 -0.000521358130532 0
0.00165663023079 -0.000446227666242 0
0.00167707500643 -0.000370000886922 0
0.0016940106335 -0.000292837109986 0
0.00170739415951 -0.000214897960582 0
0.00171719007977 -0.000136347033084 0
0.00172337042769 -5.73495477219e-05 0
0.00172591484925 2.19279969297e-05 0
0.00172481066141 0.000101318174866 0
0.00172005289433 0.000180652986242 0
0.0017116443173 0.000259764212875 0
0.00169959544833 0.000338483774931 0
0.00168392454716 0.00041664408801 0
0.00166465759194 0.000494078419895 0
0.0016418282394 0.000570621246194 0
0.00161547776864 0.00064610860412 0
0.00158565500859 0.000720378443648 0
0.00155241624935 0.000793270975307 0
0.0015158251374 0.000864629013851 0
0.00147595255507 0.000934298317075 0
0.00143287648436 0.00100212791904 0
0.00138668185538 0.00106797045701 0
0.00133746037979 0.00113168249133 0
0.00128531036945 0.00119312481769 0
0.00123033654074 0.00125216277085 0
0.00117264980483 0.00130866651952 0
0.00111236704445 0.00136251135132 0
0.00104961087747 0.00141357794763 0
0.00098450940787 0.00146175264737 0
0.000917195964588 0.00150692769935 0
0.000847808828702 0.00154900150253 0
0.000776490949608 0.00158787883369 0
0.000703389650709 0.00162347106198 0
0.000628656325241 0.00165569634993 0
0.00055244612287 0.00168447984032 0
0.000474917627689 0.00170975382872 0
0.000396232528308 0.00173145792103 0
0.000316555280699 0.0017495391759 0
0.000236052764519 0.00176395223155 0
0.000154893933613 0.0017746594167 0
7.32494614449e-05 0.00178163084549 0
-8.70861781805e-06 0.00178484449589 0
-9.08072717961e-05 0.00178428627169 0
-0.000172872835208 0.0017799500477 0
-0.000254731377229 0.00177183769813 0
-0.00033620907012 0.00175995910803 0
-0.00041713255834 0.00174433216771 0
-0.000497329327372 0.00172498275022 0
-0.00057662807146 0.00170194467171 0
-0.000654859059491 0.00167525963499 0
-0.000731854498221 0.00164497715607 0
-0.000807448892092 0.00161115447411 0
-0.000881479398845 0.0015738564447 0
-0.000953786180178 0.00153315541679 0
-0.0010242127467 0.00148913109347 0
-0.0010926062964 0.00144187037687 0
-0.00115881804597 0.00139146719747 0
-0.00122270355422 0.00133802232813 0
-0.00128412303679 0.00128164318331 0
-0.00134294167174 0.00122244360369 0
-0.001399029895 0.00116054362686 0
-0.00145226368534 0.00109606924431 0
-0.00150252483805 0.00102915214537 0
-0.00154970122681 0.000959929448573 0
-0.00159368705308 0.000888543420912 0
-0.00163438308264 0.000815141185731 0
-0.00167169686851 0.000739874419676 0
-0.00170554295996 0.000662899039441 0
-0.00173584309701 0.000584374878909 0
-0.00176252639004 0.000504465357373 0
-0.00178552948411 0.000423337139514 0
-0.00180479670753 0.000341159787856 0
-0.00182028020443 0.00025810540841 0
-0.00183194005098 0.000174348290261 0
-0.00183974435498 9.00645398362e-05 0
-0.00184366933855 5.43171063669e-06 0
-0.00184369940382 -7.93715707959e-05 0
-0.00183982718124 -0.00016416598189 0
-0.00183205356069 -0.000248771883232 0
-0.0018203877049 -0.00033300969914 0
-0.00180484704552 -0.000416700298798 0
-0.00178545726147 -0.000499665377164 0
-0.00176225223986 -0.000581727834828 0
-0.00173527401931 -0.000662712156009 0
-0.00170457271592 -0.000742444783901 0
-0.00167020643194 -0.000820754492542 0
-0.00163224114725 -0.000897472754426 0
-0.00159075059402 -0.000972434103068 0
-0.0015458161146 -0.00104547648973 0
-0.00149752650302 -0.00111644163357 0
-0.00144597783034 -0.00118517536437 0
-0.00139127325428 -0.0012515279573 0
-0.00133352281344 -0.00131535445867 0
-0.00127284320646 -0.00137651500235 0
-0.00120935755677 -0.0014348751158 0
-0.00114319516311 -0.00149030601531 0
-0.00107449123664 -0.00154268488971 0
-0.00100338662485 -0.00159189517179 0
-0.000930027523183 -0.00163782679716 0
-0.000854565174584 -0.00168037644959 0
-0.000777155557936 -0.00171944779257 0
-0.000697959065794 -0.00175495168646 0
-0.000617140172182 -0.00178680639075 0
-0.000534867091123 -0.00181493775097 0
-0.0004513114266 -0.00183927936984 0
-0.000366647814689 -0.00185977276224 0
-0.000281053558601 -0.00187636749374 0
-0.000194708257404 -0.0018890213022 0
-0.000107793429195 -0.00189770020226 0
-2.04921295135e-05 -0.0019023785725 0
6.70114341917e-05 -0.00190303922496 0
0.000154532291248 -0.00189967345685 0
0.00024188509876 -0.00189228108441 0
0.000328884534106 -0.00188087045871 0
0.000415345688107 -0.00186545846336 0
0.000501084458011 -0.00184607049407 0
0.000585917939492 -0.0018227404202 0
0.00066966481679 -0.00179551052812 0
0.000752145750195 -0.00176443144672 0
0.000833183760025 -0.001729562055 0
0.000912604606279 -0.00169096937202 0
0.000990237163161 -0.00164872842935 0
0.00106591378766 -0.0016029221263 0
0.00113947068141 -0.00155364106815 0
0.00121074824498 -0.00150098338782 0
0.00127959142398 -0.00144505455115 0
0.00134585004606 -0.00138596714631 0
0.00140937914814 -0.00132384065771 0
0.00147003929324 -0.00125880122486 0
0.00152769687607 -0.00119098138672 0
0.0015822244168 -0.00112051981192 0
0.00163350084238 -0.0010475610156 0
0.00168141175475 -0.000972255063228 0
0.00172584968532 -0.00089475726222 0
0.00176671433523 -0.000815227841791 0
0.0018039128008 -0.000733831621857 0
0.00183735978372 -0.000650737671577 0
0.00186697778538 -0.000566118958288 0
0.00189269728508 -0.000480151987531 0
0.00191445690161 -0.000393016434949 0
0.00193220353774 -0.000304894770795 0
0.00194589250752 -0.000215971877853 0
0.00195548764587 -0.000126434663567 0
0.00196096140026 -3.64716671877e-05 0
0.00196229490436 5.37273372272e-05 0
0.00195947803328 0.000143971741139 0
0.00195250944043 0.00023407050432 0
0.00194139657577 0.000323832559267 0
0.00192615568544 0.000413067216387 0
0.00190681179274 0.00050158456908 0
0.00188339866039 0.000589195897873 0
0.00185595873424 0.000675714072738 0
0.0018245430684 0.00076095395274 0
0.00178921123203 0.000844732782158 0
0.00175003119783 0.000926870582232 0
0.00170707921256 0.0010071905377 0
0.00166043964974 0.00108551937729 0
0.00161020484483 0.00116168774736 0
0.0015564749133 0.00123553057785 0
0.0014993575518 0.00130688743983 0
0.00143896782292 0.00137560289371 0
0.00137542792396 0.00144152682761 0
0.00130886694015 0.00150451478489 0
0.00123942058281 0.00156442828031 0
0.00116723091303 0.001621135104 0
0.00109244605137 0.00167450961272 0
0.00101521987422 0.00172443300763 0
0.000935711697416 0.00177079359804 0
0.000854085947736 0.00181348705046 0
0.000770511823059 0.00185241662261 0
0.00068516294175 0.00188749338155 0
0.000598216982093 0.00191863640577 0
0.000509855312485 0.00194577297048 0
0.000420262613165 0.00196883871598 0
0.000329626490269 0.0019877777984 0
0.000238137083019 0.00200254302276 0
0.00014598666486 0.00201309595785 0
5.33692393932e-05 0.00201940703269 0
-3.95198680525e-05 0.00202145561443 0
-0.000132484422351 0.0020192300673 0
-0.000225327693142 0.00201272779268 0