<?xml version="1.0"?>
<VTKFile type="PolyData" version="0.1" byte_order="LittleEndian">
  <PolyData>
    <Piece NumberOfPoints="1100" NumberOfLines="1" NumberOfVerts="200">
      <PointData Scalars="class_id">
        <DataArray type="Int32" Name="class_id" format="ascii">0 0 0 0 0 0 0 0 0 0 0 0 0 0 0 0 0 0 0 0 0 0 0 0 0 0 0 0 0 0 0 0 0 0 0 0 0 0 0 0 0 0 0 0 0 0 0 0 0 0 0 0 0 0 0 0 0 0 0 0 0 0 0 0 0 0 0 0 0 0 0 0 0 0 0 0 0 0 0 0 0 0 0 0 0 0 0 0 0 0 0 0 0 0 0 0 0 0 0 0 0 0 0 0 0 0 0 0 0 0 0 0 0 0 0 0 0 0 0 0 0 0 0 0 0 0 0 0 0 0 0 0 0 0 0 0 0 0 0 0 0 0 0 0 0 0 0 0 0 0 0 0 0 0 0 0 0 0 0 0 0 0 0 0 0 0 0 0 0 0 0 0 0 0 0 0 0 0 0 0 0 0 0 0 0 0 0 0 0 0 0 0 0 0 0 0 0 0 0 0 0 0 0 0 0 0 0 0 0 0 0 0 0 0 0 0 0 0 0 0 0 0 0 0 0 0 0 0 0 0 0 0 0 0 0 0 0 0 0 0 0 0 0 0 0 0 0 0 0 0 0 0 0 0 0 0 0 0 0 0 0 0 0 0 0 0 0 0 0 0 0 0 0 0 0 0 0 0 0 0 0 0 0 0 0 0 0 0 0 0 0 0 0 0 0 0 0 0 0 0 0 0 0 0 0 0 0 0 0 0 0 0 0 0 0 0 0 0 0 0 0 0 0 0 0 0 0 0 0 0 0 0 0 0 0 0 0 0 0 0 0 0 0 0 0 0 0 0 0 0 0 0 0 0 0 0 0 0 0 0 0 0 0 0 0 0 0 0 0 0 0 0 0 0 0 0 0 0 0 0 0 0 0 0 0 0 0 0 0 0 0 0 0 0 0 0 0 0 0 0 0 0 0 0 0 0 0 0 0 0 0 0 0 0 0 0 0 0 0 0 0 0 0 0 0 0 0 0 0 0 0 0 0 0 0 0 0 0 0 0 0 0 0 0 0 0 0 0 0 0 0 0 0 0 0 0 0 0 0 0 0 0 0 0 0 0 0 0 0 0 0 0 0 0 0 0 0 0 0 0 0 0 0 0 0 0 0 0 0 0 0 0 0 0 0 0 0 0 0 0 0 0 0 0 0 0 0 0 0 0 0 0 0 0 0 0 0 0 0 0 0 0 0 0 0 0 0 0 0 0 0 0 0 0 0 0 0 0 0 0 0 0 0 0 0 0 0 0 0 0 0 0 0 0 0 0 0 0 0 0 0 0 0 0 0 0 0 0 0 0 0 0 0 0 0 0 0 0 0 0 0 0 0 0 0 0 0 0 0 0 0 0 0 0 0 0 0 0 0 0 0 0 0 0 0 0 0 0 0 0 0 0 0 0 0 0 0 0 0 0 0 0 0 0 0 0 0 0 0 0 0 0 0 0 0 0 0 0 0 0 0 0 0 0 0 0 0 0 0 0 0 0 0 0 0 0 0 0 0 0 0 0 0 0 0 0 0 0 0 0 0 0 0 0 0 0 0 0 0 0 0 0 0 0 0 0 0 0 0 0 0 0 0 0 0 0 0 0 0 0 0 0 0 0 0 0 0 0 0 0 0 0 0 0 0 0 0 0 0 0 0 0 0 0 0 0 0 0 0 0 0 0 0 0 0 0 0 0 0 0 0 0 0 0 0 0 0 0 0 0 0 0 0 0 0 0 0 0 0 0 0 0 0 0 0 0 0 0 0 0 0 0 0 0 0 0 0 0 0 0 0 0 0 0 0 0 0 0 0 0 0 0 0 0 0 0 0 0 0 0 0 0 0 0 0 0 0 0 0 0 0 0 0 0 0 0 0 0 0 0 0 0 0 0 0 0 0 0 0 0 0 0 0 0 0 0 0 0 0 0 0 0 0 0 0 0 0 0 0 0 0 0 0 0 0 0 0 0 0 0 0 0 0 0 0 0 0 0 0 0 0 0 0 0 0 0 0 0 0 0 0 0 0 0 0 0 0 0 0 0 0 0 0 0 0 0 0 0 0 0 2 2 2 2 2 2 2 2 2 2 2 2 2 2 2 2 2 2 2 2 2 2 2 2 2 2 2 2 2 2 2 2 2 2 2 2 2 2 2 2 2 2 2 2 2 2 2 2 2 2 2 2 2 2 2 2 2 2 2 2 2 2 2 2 2 2 2 2 2 2 2 2 2 2 2 2 2 2 2 2 2 2 2 2 2 2 2 2 2 2 2 2 2 2 2 2 2 2 2 2 1 1 1 1 1 1 1 1 1 1 1 1 1 1 1 1 1 1 1 1 1 1 1 1 1 1 1 1 1 1 1 1 1 1 1 1 1 1 1 1 1 1 1 1 1 1 1 1 1 1 1 1 1 1 1 1 1 1 1 1 1 1 1 1 1 1 1 1 1 1 1 1 1 1 1 1 1 1 1 1 1 1 1 1 1 1 1 1 1 1 1 1 1 1 1 1 1 1 1 1</DataArray>
      </PointData>
      <Points>
        <DataArray type="Float32" NumberOfComponents="3" format="ascii">
0.00164786441539 0 0
0.00164738145986 9.57095923091e-05 0
0.00164133656358 0.000191362713416 0
0.00162973469014 0.000286635969839 0
0.00161259961653 0.000381206356765 0
0.00158997390448 0.000474752353071 0
0.00156191880812 0.000566955014338 0
0.00152851411801 0.000657499060118 0
0.00148985794185 0.000746073951757 0
0.00144606642251 0.000832374957092 0
0.00139727339421 0.000916104198369 0
0.00134362997765 0.000996971679785 0
0.00128530411558 0.0010746962911 0
0.00122248004995 0.00114900678386 0
0.0011553577425 0.00121964271686 0
0.00108415224038 0.00128635536748 0
0.001009092989 0.00134890860585 0
0.000930423094158 0.00140707972861 0
0.000848398535888 0.00146066024944 0
0.000763287336552 0.00150945664357 0
0.000675368685859 0.00155329104352 0
0.000584932025673 0.00159200188367 0
0.000492276097621 0.0016254444913 0
0.000397707956619 0.00165349162197 0
0.000301541953569 0.00167603393725 0
0.000204098690612 0.00169298042302 0
0.000105703952396 0.00170425874683 0
6.6876169259e-06 0.00170981555283 0
-9.26174503667e-05 0.00170961669325 0
-0.000191876515621 0.0017036473953 0
-0.000290754104852 0.00169191236294 0
-0.000388915137769 0.00167443581284 0
-0.000486026063252 0.00165126144439 0
-0.00058175599267 0.00162245234346 0
-0.000675777827168 0.0015880908204 0
-0.000767769375083 0.00154827818228 0
-0.000857414455689 0.00150313444026 0
-0.000944403985476 0.00145279795279 0
-0.00102843704324 0.00139742500563 0
-0.0011092219103 0.00133718933013 0
-0.0011864770823 0.00127228156102 0
-0.00125993224898 0.00120290863557 0
-0.00132932923866 0.00112929313589 0
-0.00139442292403 0.00105167257653 0
-0.00145498208607 0.00097029863963 0
-0.00151079023315 0.000885436360004 0
-0.00156164637234 0.00079736326294 0
-0.0016073657302 0.000706368457388 0
-0.00164778042054 0.000612751687557 0
-0.00168274005659 0.000516822346014 0
-0.00171211230559 0.000418898451539 0
-0.00173578338356 0.000319305595103 0
-0.00175365848853 0.000218375857474 0
-0.00176566217061 0.000116446702036 0
-0.00177173863738 1.38598465177e-05 0
-0.00177185199354 -8.90398825959e-05 0
-0.00176598641372 -0.000191905709128 0
-0.00175414624779 -0.00029439007586 0
-0.001736356058 -0.000396145818824 0
-0.00171266058786 -0.000496827343268 0
-0.00168312466249 -0.000596091797322 0
-0.00164783302071 -0.000693600239361 0
-0.00160689007926 -0.000789018795109 0
-0.00156041962971 -0.000882019800525 0
-0.00150856446904 -0.000972282926559 0
-0.00145148596484 -0.00105949628192 0
-0.00138936355654 -0.00114335749007 0
-0.00132239419411 -0.0012235747367 0
-0.00125079171609 -0.00129986778413 0
-0.0011747861688 -0.001371968949 0
-0.00109462306893 -0.00143962403991 0
-0.0010105626119 -0.00150259325184 0
-0.000922878828459 -0.00156065201391 0
-0.000831858692338 -0.00161359178785 0
-0.00073780118182 -0.00166122081404 0
-0.000641016298273 -0.0017033648027 0
-0.000541824044906 -0.00173986756758 0
-0.000440553369079 -0.00177059159994 0
-0.000337541071691 -0.00179541858069 0
-0.000233130687228 -0.00181424982889 0
-0.000127671338223 -0.00182700668474 0
-2.15165679306e-05 -0.00183363082586 0
8.49768448718e-05 -0.00183408451534 0
0.000191450084991 -0.0018283507808 0
0.000297543509796 -0.00181643352352 0
0.000402897863997 -0.00179835755718 0
0.000507155496121 -0.00177416857584 0
0.000609961572569 -0.00174393305117 0
0.000710965285124 -0.00170773805906 0
0.000809821047816 -0.00166569103598 0
0.000906189679046 -0.00161791946586 0
0.000999739564936 -0.00156457049828 0
0.00109014779992 -0.00150581049913 0
0.00117710130062 -0.00144182453509 0
0.00126029788925 -0.00137281579354 0
0.00133944734269 -0.00129900493967 0
0.00141427240369 -0.00122062941289 0
0.00148450975059 -0.0011379426646 0
0.00154991092231 -0.00105121334006 0
0.00161024319515 -0.000960724406636 0
0.00166529040861 -0.000866772231593 0
0.00171485373696 -0.000769665612147 0
0.00175875240412 -0.000669724761152 0
0.00179682433909 -0.000567280251651 0
0.00182892676971 -0.000462671923791 0
0.00185493675243 -0.000356247757719 0
0.00187475163627 -0.000248362716196 0
0.00188828945927 -0.000139377560776 0
0.00189548927567 -2.96576454927e-05 0
0.00189631141295 8.04283079025e-05 0
0.00189073765729 0.000190509449052 0
0.00187877136691 0.000300214048288 0
0.00186043751267 0.000409170751906 0
0.00183578264551 0.000517009839171 0
0.0018048747909 0.000623364476808 0
0.00176780327017 0.000727871966719 0
0.00172467844947 0.000830174982682 0
0.00167563141679 0.000929922791812 0
0.00162081358815 0.00102677245662 0
0.00156039624393 0.00112039001354 0
0.00149456999697 0.0012104516239 0
0.00142354419387 0.00129664469328 0
0.00134754625153 0.00137866895561 0
0.00126682093091 0.00145623751793 0
0.00118162955037 0.00152907786249 0
0.00109224914109 0.00159693280249 0
0.000998971547368 0.00165956138821 0
0.000902102474563 0.00171673976032 0
0.000801960487979 0.00176826194732 0
0.000698875965793 0.00181394060438 0
0.000593190009574 0.00185360769076 0
0.000485253315935 0.00188711508362 0
0.000375425013074 0.0019143351257 0
0.000264071466047 0.00193516110519 0
0.000151565054753 0.00194950766566 0
3.82829287079e-05 0.00195731114479 0
-7.53942572304e-05 0.00195852984041 0
-0.000189083621947 0.00195314420285 0
-0.00030240134767 0.00194115695278 0
-0.000414963975736 0.00192259312394 0
-0.000526389704156 0.00189750003044 0
-0.000636299682577 0.00186594715859 0
-0.000744319300264 0.00182802598349 0
-0.000850079462711 0.00178384971067 0
-0.000953217852537 0.00173355294372 0
-0.00105338017036 0.00167729127866 0
-0.00115022135139 0.00161524082633 0
-0.00124340675361 0.0015475976643 0
-0.00133261331337 0.00147457721994 0
-0.00141753066448 0.00139641358652 0
-0.00149786221691 0.00131335877471 0
-0.00157332619138 0.00122568190158 0
-0.00164365660609 0.00113366832 0
-0.00170860421239 0.00103761869097 0
-0.00176793737589 0.000937848002153 0
-0.00182144289995 0.000834684535577 0
-0.00186892678878 0.000728468788094 0
-0.00191021494713 0.000619552347986 0
-0.00194515381442 0.000508296731503 0
-0.00197361093069 0.000395072183166 0
-0.00199547543252 0.000280256443806 0
-0.00201065847695 0.000164233490453 0
-0.00201909359187 4.7392252258e-05 0
-0.00202073695155 -6.98746932343e-05 0
-0.00201556757607 -0.000187172439114 0
-0.00200358745403 -0.000304105078989 0
-0.00198482158772 -0.000420277043252 0
-0.00195931796056 -0.000535294437211 0
-0.00192714742675 -0.000648766376578 0
-0.00188840352322 -0.000760306315761 0
-0.00184320220449 -0.000869533364466 0
-0.00179168150105 -0.000976073588117 0
-0.00173400110226 -0.00107956128766 0
-0.00167034186513 -0.00117964025435 0
-0.00160090525026 -0.00127596499528 0
-0.00152591268695 -0.00136820192534 0
-0.00144560486922 -0.00145603052157 0
-0.0013602409852 -0.00153914443591 0
-0.00127009788211 -0.00161725256247 0
-0.00117546916977 -0.00169008005556 0
-0.00107666426531 -0.00175736929506 0
-0.000974007382353 -0.00181888079555 0
-0.000867836467883 -0.00187439405622 0
-0.000758502090277 -0.00192370834834 0
-0.000646366282215 -0.00196664343766 0
-0.000531801342239 -0.00200304023901 0
-0.000415188598935 -0.00203276140086 0
-0.000296917141864 -0.0020556918176 0
-0.000177382523422 -0.00207173906775 0
-5.69854360059e-05 -0.00208083377633 0
6.38696311301e-05 -0.00208292990011 0
0.000184775750796 -0.0020780049346 0
0.00030532492802 -0.00206606004175 0
0.00042510947681 -0.00204712009805 0
0.000543723398884 -0.00202123366232 0
0.000660763759698 -0.00198847286351 0
0.000775832057122 -0.0019489332084 0
0.000888535578096 -0.00190273330989 0
0.000998488738671 -0.00185001453645 0
0.00110531440284 -0.00179094058394 0
0.00120864517567 -0.00172569697092 0
0.00130812466627 -0.00165449045907 0
0.00140340871634 -0.00157754840049 0
0.00149416658991 -0.00149511801398 0
0.00158008212033 -0.00140746559249 0
0.00166085481045 -0.00131487564443 0
0.00173620088217 -0.00121764997145 0
0.00180585427165 -0.00111610668578 0
0.00186956756688 -0.00101057917027 0
0.00192711288408 -0.000901414984551 0
0.00197828267993 -0.000788974720916 0
0.00202289049686 -0.000673630813626 0
0.0020607716385 -0.000555766305653 0
0.00209178377305 -0.000435773576876 0
0.00211580746231 -0.000314053037992 0
0.00213274661438 -0.000191011794468 0
0.00214252885839 -6.70622849993e-05 0
0.0021451058398 5.73791009719e-05 0
0.00214045343516 0.000181893422047 0
0.00212857188527 0.000306060595268 0
0.00210948584635 0.000429460813378 0
0.00208324435868 0.000551675964156 0
0.00204992073273 0.000672291047033 0
0.00200961235299 0.000790895582194 0
0.00196244039991 0.000907085007368 0
0.0019085494909 0.00102046205757 0
0.0018481072412 0.00113063812307 0
0.0017813037461 0.00123723458097 0
0.00170835098608 0.00133988409585 0
0.00162948215662 0.00143823188489 0
0.00154495092494 0.00153193694331 0
0.00145503061587 0.00162067322575 0
0.00136001332964 0.00170413077956 0
0.0012602089942 0.00178201682602 0
0.00115594435542 0.00185405678577 0
0.00104756190816 0.00191999524491 0
0.000935418771982 0.00197959685818 0
0.000819885514965 0.0020326471863 0
0.000701344929645 0.00207895346433 0
0.000580190765049 0.00211834529826 0
0.000456826419046 0.00215067528756 0
0.000331663595352 0.00217581957112 0
0.000205120929659 0.00219367829488 0
7.76225894741e-05 0.00220417599916 0
-5.04031476524e-05 0.00220726192434 0
-0.000178525332736 0.00220291023366 0
-0.000306311795984 0.00219112015221 0
-0.000433330604542 0.00217191602153 0
-0.000559151522455 0.00214534726926 0
-0.000683347467906 0.00211148829408 0
-0.000805495962785 0.00207043826588 0
-0.000925180569691 0.00202232084178 0
-0.00104199231146 0.0019672837988 0
-0.00115553106837 0.00190549858422 0
-0.00126540694833 0.00183715978501 0
-0.00137124162521 0.00176248451785 0
-0.00147266964089 0.0016817117419 0
-0.00156933966641 0.00159510149611 0
-0.001660915718 0.00150293406389 0
-0.00174707832362 0.0014055090675 0
-0.00182752563617 0.00130314449531 0
-0.00190197448926 0.00119617566488 0
-0.00197016139213 0.00108495412548 0
-0.00203184345989 0.000969846503352 0
-0.00208679927617 0.00085123329379 0
-0.00213482968482 0.000729507603786 0
-0.00217575850803 0.000605073849541 0
-0.00220943318818 0.000478346413088 0
-0.00223572535117 0.00034974826251 0
-0.00225453128914 0.00021970954034 0
-0.00226577236075 8.86661248584e-05 0
-0.00226939530757 -4.29418309029e-05 0
-0.00226537248524 -0.000174671377554 0
-0.00225370200862 -0.000306078260168 0
-0.00223440781001 -0.00043671841652 0
-0.00220753961034 -0.000566149477677 0
-0.00217317280306 -0.00069393226589 0
-0.00213140825104 -0.000819632284689 0
-0.00208237199695 -0.000942821196153 0
-0.00202621488796 -0.00106307828031 0
-0.00196311211585 -0.00117999187172 0
-0.00189326267389 -0.00129316076828 0
-0.00181688873218 -0.00140219560756 0
-0.00173423493346 -0.00150672020573 0
-0.00164556761145 -0.00160637285477 0
-0.00155117393441 -0.00170080757317 0
-0.00145136097654 -0.0017896953061 0
-0.00134645472026 -0.00187272507063 0
-0.00123679899253 -0.00194960504222 0
-0.0011227543389 -0.00202006357859 0
-0.00100469683865 -0.00208385017738 0
-0.000883016865192 -0.00214073636425 0
-0.000758117795674 -0.00219051650831 0
-0.000630414674075 -0.00223300856193 0
-0.000500332832245 -0.0022680547223 0
-0.000368306473448 -0.00229552201235 0
-0.000234777223135 -0.00231530277892 0
-0.000100192651777 -0.00232731510627 0
3.49952252935e-05 -0.00233150314349 0
0.000170331466013 -0.00232783734439 0
0.000305359732581 -0.00231631461897 0
0.000439623830176 -0.00229695839584 0
0.000572669248198 -0.00226981859498 0
0.000704044698827 -0.00223497151111 0
0.000833303647708 -0.00219251960753 0
0.000960005831543 -0.00214259122119 0
0.00108371875745 -0.00208534017975 0
0.00120401917901 -0.0020209453317 0
0.00132049454387 -0.00194960999104 0
0.00143274440809 -0.00187156129817 0
0.00154038181228 -0.00178704949906 0
0.00164303461485 -0.00169634714485 0
0.00174034677772 -0.00159974821464 0
0.00183197960018 -0.00149756716404 0
0.00191761289646 -0.00139013790275 0
0.00199694611309 -0.00127781270444 0
0.00206969938198 -0.00116096105236 0
0.0021356145057 -0.0010399684247 0
0.00219445587138 -0.00091523502344 0
0.00224601129008 -0.000787174451071 0
0.00229009275858 -0.00065621233945 0
0.00232653714096 -0.000522784935375 0
0.00235520676737 -0.000387337647578 0
0.00237598994795 -0.000250323559961 0
0.00238880139995 -0.000112201916057 0
0.00239358258637 2.6563420232e-05 0
0.00239030196494 0.000165505522454 0
0.0023789551463 0.00030415597275 0
0.00235956496073 0.000442046441034 0
0.00233218143307 0.000578710266892 0
0.00229688166567 0.000713684038852 0
0.00225376962958 0.000846509165681 0
0.00220297586463 0.000976733434379 0
0.0021446570891 0.00110391254958 0
0.0020789957202 0.00122761164914 0
0.00200619930683 0.00134740679068 0
0.00192649987629 0.00146288640409 0
0.00184015319712 0.00157365270497 0
0.00174743796025 0.00167932306412 0
0.00164865488119 0.00177953132847 0
0.00154412572608 0.00187392908879 0
0.00143419226479 0.00196218688983 0
0.00131921515446 0.00204399537873 0
0.00119957275711 0.00211906638764 0
0.00107565989522 0.0021871339468 0
0.000947886549301 0.00224795522453 0
0.000816676501901 0.00230131139076 0
0.000682465932339 0.00234700840116 0
0.000545701966973 0.00238487769894 0
0.000406841189753 0.00241477683182 0
0.000266348118033 0.00243658998202 0
0.000124693648731 0.00245022840722 0
-1.76465199634e-05 0.00245563079081 0
-0.00016019348605 0.00245276350024 0
-0.000302466754978 0.00244162075221 0
-0.000443985859282 0.00242222468414 0
-0.000584271981148 0.00239462533139 0
-0.000722849572408 0.00235890051023 0
-0.000859247966503 0.00231515560668 0
-0.00099300297694 0.00226352327185 0
-0.00112365847681 0.0022041630246 0
-0.00125076795403 0.00213726076267 0
-0.0013738960369 0.00206302818375 0
-0.00149261998496 0.00198170211842 0
-0.00160653113981 0.00189354377682 0
-0.00171523633109 0.00179883791167 0
-0.00181835923272 0.00169789190014 0
-0.0019155416647 0.00159103474764 0
-0.00200644483604 0.00147861601666 0
-0.00209075052445 0.00136100468423 0
-0.00216816218866 0.00123858793172 0
-0.00223840600965 0.00111176987081 0
-0.0023012318569 0.000980970210066 0
-0.00235641417642 0.000846622866277 0
-0.00240375279746 0.000709174525313 0
-0.00244307365479 0.000569083157185 0
-0.00247422942425 0.000426816490286 0
-0.00249710006901 0.000282850449877 0
-0.00251159329473 0.000137667566044 0
-0.00251764491177 -8.24464356891e-06 0
-0.00251521910312 -0.000154395310807 0
-0.00250430859702 -0.000300291868349 0
-0.00248493474338 -0.000445441709794 0
-0.00245714749372 -0.000589353852886 0
-0.00242102528444 -0.000731540600268 0
-0.00237667482361 -0.000871519192152 0
-0.00232423078191 -0.00100881344529 0
-0.00226385538855 -0.00114295537271 0
-0.00219573793335 -0.00127348677865 0
-0.00212009417651 -0.00139996082334 0
-0.00203716566793 -0.00152194355224 0
-0.00194721897811 -0.00163901538446 0
-0.00185054484325 -0.00175077255535 0
-0.00174745722708 -0.00185682850823 0
-0.00163829230261 -0.00195681523052 0
-0.00152340735703 -0.00205038452962 0
-0.00140317962327 -0.00213720924407 0
-0.00127800504214 -0.00221698438593 0
-0.00114829695904 -0.00228942821027 0
-0.00101448475958 -0.00235428320798 0
-0.000877012448527 -0.00241131701864 0
-0.000736337176863 -0.00246032325996 0
-0.000592927721829 -0.00250112227095 0
-0.000447262924956 -0.00253356176624 0
-0.000299830093338 -0.00255751739898 0
-0.000151123369459 -0.0025728932305 0
-1.64207503628e-06 -0.00257962210471 0
0.000148110965566 -0.00257766592606 0
0.000297631116738 -0.00256701583976 0
0.000446413632132 -0.0025476923136 0
0.000593955358567 -0.00251974512086 0
0.000739756437554 -0.00248325322415 0
0.000883321998709 -0.00243832456056 0
0.00102416383931 -0.00238509572846 0
0.0011618020843 -0.00232373157702 0
0.00129576682106 -0.00225442469951 0
0.00142559970347 -0.00217739483209 0
0.00155085551968 -0.00209288815975 0
0.00167110371827 -0.00200117653182 0
0.00178592988762 -0.00190255658932 0
0.00189493718332 -0.00179734880712 0
0.00199774769881 -0.00168589645383 0
0.00209400377434 -0.00156856447298 0
0.00218336924 -0.00144573828895 0
0.00226553058821 -0.00131782254173 0
0.00234019807177 -0.00118523975445 0
0.00240710672361 -0.00104842893829 0
0.00246601729455 -0.000907844139218 0
0.00251671710589 -0.000763952931418 0
0.00255902081378 -0.00061723486241 0
0.00259277108246 -0.000468179855033 0
0.00261783916426 -0.000317286571592 0
0.00263412538392 -0.000165060745662 0
0.00264155952563 -1.20134871043e-05 0
0.00264010112119 0.00014134043401 0
0.00262973963831 0.000294484318812 0
0.00261049456797 0.000446901280561 0
0.00258241541073 0.000598075989215 0
0.00254558156147 0.000747496413755 0
0.00250010209314 0.000894655556385 0
0.00244611543979 0.00103905317272 0
0.00238378897994 0.00118019747213 0
0.0023133185215 0.00131760679247 0
0.00223492768976 0.00145081124348 0
0.00214886722037 0.00157935431326 0
0.00205541415964 0.0017027944323 0
0.00195487097447 0.00182070648981 0
0.00184756457503 0.00193268329693 0
0.00173384525316 0.00203833699208 0
0.00161408554002 0.00213730038333 0
0.0014886789866 0.0022292282233 0
0.00135803887131 0.00231379841217 0
0.00122259683858 0.0023907131245 0
0.00108280147324 0.00245969985606 0
0.000939116815187 0.00252051238691 0
0.000792020819374 0.00257293165734 0
0.000642003766145 0.00261676655365 0
0.000489566627281 0.00265185460077 0
0.000335219393152 0.00267806255948 0
0.00017947936657 0.00269528692586 0
2.28694290572e-05 0.00270345433112 0
-0.00013408371466 0.00270252184042 0
-0.000290851308042 0.00269247714942 0
-0.000446904324059 0.00267333867767 0
-0.000601715250425 0.00264515555845 0
-0.000754759872749 0.00260800752489 0
-0.000905519049541 0.00256200469252 0
-0.0010534804731 0.00250728723889 0
-0.00119814041028 0.00244402498116 0
-0.00133900541723 0.0023724168528 0
-0.00147559402228 0.00229269028121 0
-0.00160743837122 0.00220510046799 0
-0.00173408582941 0.00210992957426 0
-0.00185510053505 0.00200748581355 0
-0.00197006489861 0.0018981024552 0
-0.0020785810429 0.00178213674153 0
-0.00218027217907 0.00165996872218 0
-0.00227478391371 0.00153200000951 0
-0.00236178548248 0.00139865245918 0
-0.00244097090601 0.00126036678002 0
-0.00251206006407 0.00111760107813 0
-0.00257479968419 0.000970829339565 0
-0.00262896424127 0.000820539857115 0
-0.00267435676501 0.000667233605974 0
-0.00271080955225 0.000511422573984 0
-0.0027381847817 0.000353628051887 0
-0.00275637502874 0.000194378889337 0
-0.00276530367847 3.42097224892e-05 0
-0.00276492523546 -0.000126340820881 0
-0.00275522552882 -0.000286731932707 0
-0.00273622181197 -0.000446422446325 0
-0.00270796275638 -0.000604872662384 0
-0.00267052833928 -0.000761546172816 0
-0.00262402962541 -0.000915911676711 0
-0.00256860844353 -0.00106744478194 0
-0.00250443695848 -0.0012156297864 0
-0.00243171714007 -0.00135996143288 0
-0.00235068013055 -0.00149994663156 0
-0.00226158551248 -0.00163510614417 0
-0.00216472047937 -0.00176497622425 0
-0.00206039891178 -0.00188911020778 0
-0.00194896036176 -0.00200708004865 0
-0.00183076894896 -0.00211847779391 0
-0.00170621217202 -0.00222291699351 0
-0.00157569963899 -0.00232003403975 0
-0.00143966172116 -0.00240948943186 0
-0.00129854813447 -0.00249096896119 0
-0.00115282645334 -0.00256418481295 0
-0.00100298056181 -0.00262887658063 0
-0.000849509047035 -0.0026848121896 0
-0.000692923540587 -0.00273178872645 0
-0.000533747012952 -0.00276963317132 0
-0.000372512027026 -0.00279820303042 0
-0.000209758956362 -0.00281738686658 0
-4.60341741701e-05 -0.00282710472574 0
0.000118111780881 -0.00282730845793 0
0.000282126055896 -0.00281798193128 0
0.000445455345793 -0.00279914113836 0
0.000607547759876 -0.00277083419424 0
0.00076785468666 -0.00273314122602 0
0.000925832650623 -0.0026861741542 0
0.00108094515462 -0.00263007636631 0
0.00123266450172 -0.00256502228376 0
0.00138047359022 -0.00249121682327 0
0.00152386767585 -0.00240889475444 0
0.00166235609502 -0.00231831995553 0
0.00179546394337 -0.00221978456975 0
0.00192273370373 -0.00211360806479 0
0.00204372681807 -0.00200013619858 0
0.0021580251979 -0.00187973989465 0
0.00226523266806 -0.00175281403069 0
0.00236497633873 -0.00161977614441 0
0.00245690790114 -0.00148106506067 0
0.0025407048423 -0.00133713944471 0
0.0026160715746 -0.00118847628597 0
0.0026827404763 -0.00103556931771 0
0.00274047283931 -0.000878927377562 0
0.0027890597208 -0.000719072714439 0
0.00282832269576 -0.000556539247545 0
0.00285811450769 -0.000391870783171 0
0.0028783196151 -0.000225619195293 0
0.0028888546318 -5.83425760478e-05 0
0.00288966865942 0.000109396637714 0
0.00288074351066 0.00027703355552 0
0.00286209382256 0.000444002735635 0
0.00283376705911 0.000609740092305 0
0.00279584340305 0.000773684801425 0
0.00274843553703 0.000935281198222 0
0.00269168831476 0.0010939806605 0
0.00262577832298 0.00124924347112 0
0.00255091333567 0.00140054065327 0
0.00246733166207 0.0015473557725 0
0.00237530139064 0.00168918669913 0
0.00227511953131 0.00182554732519 0
0.00216711105867 0.00195596923002 0
0.00205162785938 0.00208000328868 0
0.00192904758698 0.00219722121785 0
0.00179977242799 0.0023072170537 0
0.00166422778323 0.00240960855685 0
0.0015228608687 0.00250403853931 0
0.00137613924069 0.00259017610903 0
0.00122454924985 0.00266771782763 0
0.00106859442947 0.00273638877718 0
0.000908793823184 0.00279594353246 0
0.000745680257771 0.00284616703513 0
0.000579798566683 0.00288687536681 0
0.000411703770314 0.00291791641818 0
0.00024195921904 0.00293917045178 0
7.11347052526e-05 0.00295055055644 0
-0.000100195449279 0.00295200299156 0
-0.000271454324308 0.00294350742002 0
-0.000442064343777 0.00292507702861 0
-0.000611449223701 0.00289675853557 0
-0.000779035918714 0.00285863208492 0
-0.000944256560692 0.00281081102779 0
-0.0011065503829 0.00275344159137 0
-0.00126536562312 0.00268670243628 0
-0.00142016139939 0.00261080410394 0
-0.00157040955179 0.00252598835529 0
-0.00171559644427 0.00243252740324 0
-0.0018552247201 0.00233072304114 0
-0.00198881500518 0.00222090567 0
-0.00211590755317 0.0021034332277 0
-0.00223606382696 0.00197869002361 0
-0.00234886801102 0.00184708548238 0
-0.00245392844925 0.00170905280106 0
-0.00255087900359 0.0015650475239 0
-0.00263938032858 0.00141554603955 0
-0.00271912105738 0.0012610440056 0
-0.0027898188952 0.00110205470566 0
-0.00285122161629 0.000939107344475 0
-0.00290310796091 0.000772745286635 0
-0.00294528842925 0.000603524244866 0
-0.00297760596923 0.000432010423843 0
-0.00299993655593 0.00025877862578 0
-0.0030121896604 8.4410324101e-05 0
-0.0030143086061 -9.05082883185e-05 0
-0.00300627081167 -0.000265388269822 0
-0.00298808791896 -0.000439639912902 0
-0.00295980580574 -0.000612674732736 0
-0.0029215044829 -0.000783907454601 0
-0.00287329787628 -0.000952757993473 0
-0.00281533349367 -0.00111865341911 0
-0.00274779197805 -0.00128102989994 0
-0.00267088654821 -0.00143933461922 0
-0.00258486232863 -0.00159302765689 0
-0.00248999557069 -0.00174158383071 0
-0.0023865927676 -0.0018844944905 0
-0.00227498966596 -0.00202126925923 0
-0.00215555017705 -0.0021514377151 0
-0.0020286651915 -0.00227455100878 0
-0.00189475130105 -0.00239018341026 0
-0.00175424943169 -0.00249793378005 0
-0.00160762339259 -0.00259742695951 0
-0.00145535834565 -0.00268831507571 0
-0.00129795920063 -0.00277027875601 0
-0.00113594894132 -0.00284302824835 0
-0.000969866888114 -0.00290630444327 0
-0.000800266902907 -0.00295987979402 0
-0.000627715542187 -0.00300355913144 0
-0.000452790164558 -0.00303718037095 0
-0.000276076998964 -0.00306061510877 0
-9.81691800995e-05 -0.00307376910549 0
8.03352424232e-05 -0.00307658265496 0
0.00025883531445 -0.00306903083724 0
0.000436729200462 -0.00305112365452 0
0.000613416212738 -0.00302290604935 0
0.000788298839655 -0.00298445780502 0
0.000960784766288 -0.00293589332819 0
0.00113028888046 -0.00287736131434 0
0.00129623525749 -0.00280904429699 0
0.0014580591168 -0.00273115808213 0
0.00161520874395 -0.0026439510694 0
0.00176714737123 -0.00254770346239 0
0.00191335501078 -0.00244272637036 0
0.00205333023368 -0.00232936080434 0
0.00218659188902 -0.00220797657088 0
0.00231268075717 -0.00207897106696 0
0.00243116113138 -0.00194276797997 0
0.00254162232242 -0.00179981589715 0
0.00264368008095 -0.00165058682885 0
0.00273697793282 -0.00149557465061 0
0.00282118842254 -0.0013352934692 0
0.00289601426069 -0.00117027591792 0
0.0029611893712 -0.00100107138691 0
0.00301647983481 -0.000828244194314 0
0.00306168472541 -0.000652371704354 0
0.00309663683626 -0.000474042398682 0
0.0031212032935 -0.000293853907332 0
0.00313528605465 -0.00011241100595 0
0.00313882229035 6.96764140274e-05 0
0.00313178464778 0.000251795395418 0
0.00311418139474 0.000433331978682 0
0.00308605644381 0.000613673271697 0
0.00304748925615 0.00079220951895 0
0.00299859462526 0.000968336163157 0
0.0029395223412 0.00114145589234 0
0.00287045673617 0.00131098066544 0
0.00279161611294 0.00147633370955 0
0.00270325205773 0.00163695148211 0
0.00260564863982 0.00179228559117 0
0.00249912150043 0.00194180466747 0
0.00238401683361 0.0020849961816 0
0.00226071026269 0.00222136820044 0
0.00212960561572 0.0023504510764 0
0.00199113360395 0.00247179906412 0
0.00184575040775 0.00258499185866 0
0.00169393617449 0.00268963605018 0
0.00153619343336 0.00278536648997 0
0.00137304543245 0.00287184756294 0
0.00120503440346 0.00294877436248 0
0.00103271975985 0.00301587376323 0
0.000856676234454 0.00307290538823 0
0.000677491962705 0.00311966246693 0
0.000495766517877 0.00315597258099 0
0.000312108904914 0.00318169829535 0
0.000127135519553 0.00319673767199 0
-5.85319204103e-05 0.00320102466479 0
-0.000244268464792 0.00319452939378 0
-0.000429448034574 0.00317725829769 0
-0.000613445532285 0.00314925416431 0
-0.000795638952084 0.00311059603807 0
-0.000975411482421 0.00306139900527 0
-0.00115215359418 0.00300181385734 0
-0.00132526510722 0.00293202663311 0
-0.00149415722831 0.00285225804154 0
-0.00165825455355 0.00276276276662 0
-0.00181699702849 0.00266382865661 0
-0.00196984185917 0.00255577580028 0
-0.00211626536769 0.002438955493 0
-0.00225576478594 0.00231374909606 0
-0.00238785998122 0.00218056679295 0
-0.00251209510803 0.00203984624663 0
-0.0026280401802 0.0018920511621 0
-0.00273529255797 0.00173766975914 0
-0.002833478345 0.00157721316015 0
-0.0029222536902 0.00141121369843 0
-0.0030013059902 0.00124022315244 0
-0.00307035498797 0.00106481091208 0
-0.00312915376385 0.000885562082816 0
-0.00317748961556 0.000703075534224 0
-0.00321518482393 0.000517961899255 0
-0.00324209730168 0.000330841531044 0
-0.00325812112289 0.000142342424017 0
-0.00326318693122 -4.69018936944e-05 0
-0.0032572622253 -0.000236254489478 0
-0.00324035152012 -0.000425077169938 0
-0.00321249638384 -0.000612732631862 0
-0.00317377534954 -0.000798586613194 0
-0.00312430370217 -0.000982010036762 0
-0.00306423314118 -0.00116238113952 0
-0.00299375131985 -0.00133908758006 0
-0.00291308126256 -0.00151152851737 0
-0.00282248066204 -0.00167911665353 0
-0.00272224105858 -0.00184128023376 0
-0.00261268690385 -0.00199746499668 0
-0.0024941745125 -0.00214713606829 0
-0.00236709090467 -0.00228977979321 0
-0.00223185254335 -0.00242490549687 0
-0.0020889039706 -0.00255204717257 0
-0.00193871634717 -0.00267076508772 0
-0.00178178590028 -0.00278064730361 0
-0.00161863228463 -0.00288131110355 0
-0.00144979686211 -0.00297240432435 0
-0.00127584090592 -0.00305360658663 0
-0.00109734373497 -0.00312463041951 0
-0.000914900784807 -0.00318522227593 0
-0.000729121621561 -0.00323516343478 0
-0.000540627905395 -0.00327427078693 0
-0.000350051310372 -0.00330239750205 0
-0.000158031407659 -0.00331943357407 0
3.47864808436e-05 -0.00332530624304 0
0.000227753451225 -0.003319980292 0
0.000420219201371 -0.00330345821753 0