<?xml version="1.0"?>
<VTKFile type="PolyData" version="0.1" byte_order="LittleEndian">
  <PolyData>
    <Piece NumberOfPoints="1140" NumberOfLines="1" NumberOfVerts="240">
      <PointData Scalars="class_id">
        <DataArray type="Int32" Name="class_id" format="ascii">0 0 0 0 0 0 0 0 0 0 0 0 0 0 0 0 0 0 0 0 0 0 0 0 0 0 0 0 0 0 0 0 0 0 0 0 0 0 0 0 0 0 0 0 0 0 0 0 0 0 0 0 0 0 0 0 0 0 0 0 0 0 0 0 0 0 0 0 0 0 0 0 0 0 0 0 0 0 0 0 0 0 0 0 0 0 0 0 0 0 0 0 0 0 0 0 0 0 0 0 0 0 0 0 0 0 0 0 0 0 0 0 0 0 0 0 0 0 0 0 0 0 0 0 0 0 0 0 0 0 0 0 0 0 0 0 0 0 0 0 0 0 0 0 0 0 0 0 0 0 0 0 0 0 0 0 0 0 0 0 0 0 0 0 0 0 0 0 0 0 0 0 0 0 0 0 0 0 0 0 0 0 0 0 0 0 0 0 0 0 0 0 0 0 0 0 0 0 0 0 0 0 0 0 0 0 0 0 0 0 0 0 0 0 0 0 0 0 0 0 0 0 0 0 0 0 0 0 0 0 0 0 0 0 0 0 0 0 0 0 0 0 0 0 0 0 0 0 0 0 0 0 0 0 0 0 0 0 0 0 0 0 0 0 0 0 0 0 0 0 0 0 0 0 0 0 0 0 0 0 0 0 0 0 0 0 0 0 0 0 0 0 0 0 0 0 0 0 0 0 0 0 0 0 0 0 0 0 0 0 0 0 0 0 0 0 0 0 0 0 0 0 0 0 0 0 0 0 0 0 0 0 0 0 0 0 0 0 0 0 0 0 0 0 0 0 0 0 0 0 0 0 0 0 0 0 0 0 0 0 0 0 0 0 0 0 0 0 0 0 0 0 0 0 0 0 0 0 0 0 0 0 0 0 0 0 0 0 0 0 0 0 0 0 0 0 0 0 0 0 0 0 0 0 0 0 0 0 0 0 0 0 0 0 0 0 0 0 0 0 0 0 0 0 0 0 0 0 0 0 0 0 0 0 0 0 0 0 0 0 0 0 0 0 0 0 0 0 0 0 0 0 0 0 0 0 0 0 0 0 0 0 0 0 0 0 0 0 0 0 0 0 0 0 0 0 0 0 0 0 0 0 0 0 0 0 0 0 0 0 0 0 0 0 0 0 0 0 0 0 0 0 0 0 0 0 0 0 0 0 0 0 0 0 0 0 0 0 0 0 0 0 0 0 0 0 0 0 0 0 0 0 0 0 0 0 0 0 0 0 0 0 0 0 0 0 0 0 0 0 0 0 0 0 0 0 0 0 0 0 0 0 0 0 0 0 0 0 0 0 0 0 0 0 0 0 0 0 0 0 0 0 0 0 0 0 0 0 0 0 0 0 0 0 0 0 0 0 0 0 0 0 0 0 0 0 0 0 0 0 0 0 0 0 0 0 0 0 0 0 0 0 0 0 0 0 0 0 0 0 0 0 0 0 0 0 0 0 0 0 0 0 0 0 0 0 0 0 0 0 0 0 0 0 0 0 0 0 0 0 0 0 0 0 0 0 0 0 0 0 0 0 0 0 0 0 0 0 0 0 0 0 0 0 0 0 0 0 0 0 0 0 0 0 0 0 0 0 0 0 0 0 0 0 0 0 0 0 0 0 0 0 0 0 0 0 0 0 0 0 0 0 0 0 0 0 0 0 0 0 0 0 0 0 0 0 0 0 0 0 0 0 0 0 0 0 0 0 0 0 0 0 0 0 0 0 0 0 0 0 0 0 0 0 0 0 0 0 0 0 0 0 0 0 0 0 0 0 0 0 0 0 0 0 0 0 0 0 0 0 0 0 0 0 0 0 0 0 0 0 0 0 0 0 0 0 0 0 0 0 0 0 0 0 0 0 0 0 0 0 0 0 0 0 0 0 0 0 0 0 0 0 0 0 0 0 0 0 0 0 0 0 0 0 0 0 0 0 0 0 0 0 0 0 0 0 0 0 0 0 0 0 0 0 0 0 0 0 0 0 0 0 0 0 0 0 0 0 0 0 0 0 0 0 0 0 0 0 0 0 0 0 0 0 0 0 0 0 0 0 2 2 2 2 2 2 2 2 2 2 2 2 2 2 2 2 2 2 2 2 2 2 2 2 2 2 2 2 2 2 2 2 2 2 2 2 2 2 2 2 2 2 2 2 2 2 2 2 2 2 2 2 2 2 2 2 2 2 2 2 2 2 2 2 2 2 2 2 2 2 2 2 2 2 2 2 2 2 2 2 2 2 2 2 2 2 2 2 2 2 2 2 2 2 2 2 2 2 2 2 2 2 2 2 2 2 2 2 2 2 2 2 2 2 2 2 2 2 2 2 1 1 1 1 1 1 1 1 1 1 1 1 1 1 1 1 1 1 1 1 1 1 1 1 1 1 1 1 1 1 1 1 1 1 1 1 1 1 1 1 1 1 1 1 1 1 1 1 1 1 1 1 1 1 1 1 1 1 1 1 1 1 1 1 1 1 1 1 1 1 1 1 1 1 1 1 1 1 1 1 1 1 1 1 1 1 1 1 1 1 1 1 1 1 1 1 1 1 1 1 1 1 1 1 1 1 1 1 1 1 1 1 1 1 1 1 1 1 1 1</DataArray>
      </PointData>
      <Points>
        <DataArray type="Float32" NumberOfComponents="3" format="ascii">
0.001 0 0
0.00100040139434 2.4476490386e-05 0
0.00100020336071 4.89726062051e-05 0
0.000999405179614 7.34736594614e-05 0
0.000998006491651 9.79649387173e-05 0
0.000996007298238 0.000122431717927 0
0.000993407962108 0.000146859265289 0
0.000990209207593 0.000171232852118 0
0.000986412120684 0.000195537761725 0
0.00098201814888 0.000219759298302 0
0.000977029100815 0.000243882795804 0
0.000971447145666 0.000267893626833 0
0.00096527481234 0.000291777211504 0
0.000958514988455 0.000315519026294 0
0.000951170919083 0.000339104612874 0
0.000943246205296 0.000362519586909 0
0.000934744802481 0.000385749646831 0
0.000925671018445 0.000408780582568 0
0.000916029511306 0.000431598284231 0
0.000905825287161 0.000454188750759 0
0.000895063697555 0.000476538098498 0
0.000883750436723 0.000498632569732 0
0.000871891538633 0.000520458541145 0
0.000859493373816 0.000542002532214 0
0.000846562645983 0.000563251213522 0
0.000833106388449 0.000584191415004 0
0.000819131960338 0.000604810134094 0
0.000804647042601 0.000625094543791 0
0.000789659633821 0.000645032000627 0
0.000774178045831 0.000664610052532 0
0.000758210899135 0.000683816446603 0
0.000741767118127 0.000702639136753 0
0.000724855926136 0.00072106629125 0
0.000707486840271 0.000739086300141 0
0.000689669666087 0.000756687782547 0
0.000671414492072 0.000773859593826 0
0.000652731683949 0.000790590832616 0
0.000633631878809 0.000806870847727 0
0.000614125979072 0.000822689244899 0
0.000594225146275 0.000838035893413 0
0.000573940794702 0.000852900932548 0
0.000553284584847 0.000867274777892 0
0.000532268416723 0.000881148127486 0
0.000510904423016 0.000894511967808 0
0.000489204962092 0.000907357579596 0
0.000467182610853 0.000919676543498 0
0.00044485015746 0.000931460745546 0
0.000422220593909 0.000942702382455 0
0.000399307108482 0.000953393966745 0
0.000376123078066 0.000963528331675 0
0.000352682060347 0.000973098635992 0
0.00032899778589 0.000982098368488 0
0.000305084150094 0.000990521352368 0
0.000280955205046 0.000998361749419 0
0.000256625151269 0.00100561406398 0
0.000232108329362 0.00101227314671 0
0.000207419211553 0.00101833419816 0
0.000182572393156 0.00102379277213 0
0.000157582583945 0.0010286447788 0
0.000132464599445 0.00103288648772 0
0.00010723335215 0.00103651453047 0
8.19038426725e-05 0.00103952590324 0
5.64911508205e-05 0.00104191796907 0
3.10104266245e-05 0.00104368845997 0
5.47688130366e-06 0.00104483547872 0
-2.00942218142e-05 0.0010453575006 0
-4.56875764168e-05 0.00104525337471 0
-7.12878423693e-05 0.00104452232521 0
-9.68796549091e-05 0.00104316395228 0
-0.000122447633867 0.00104117823284 0
-0.00014797639291 0.0010385655211 0
-0.000173450548802 0.00103532654881 0
-0.000198854730669 0.00103146242534 0
-0.000224173589279 0.00102697463752 0
-0.000249391806309 0.00102186504922 0
-0.000274494103617 0.00101613590073 0
-0.000299465252492 0.00100978980793 0
-0.000324290082894 0.0010028297612 0
-0.000348953492669 0.000995259124103 0
-0.000373440456729 0.000987081631863 0
-0.000397736036206 0.0009783013896 0
-0.000421825387564 0.00096892287035 0
-0.000445693771659 0.00095895091285 0
-0.000469326562756 0.000948390719111 0
-0.000492709257488 0.000937247851757 0
-0.000515827483745 0.000925528231156 0
-0.000538667009508 0.000913238132316 0
-0.000561213751602 0.000900384181581 0
-0.000583453784367 0.000886973353092 0
-0.000605373348259 0.00087301296505 0
-0.000626958858348 0.000858510675757 0
-0.000648196912727 0.000843474479451 0
-0.000669074300828 0.000827912701927 0
-0.000689578011618 0.000811833995962 0
-0.000709695241703 0.00079524733653 0
-0.000729413403306 0.000778162015817 0
-0.000748720132128 0.000760587638041 0
-0.000767603295083 0.000742534114074 0
-0.000786050997911 0.000724011655875 0
-0.000804051592645 0.000705030770733 0
-0.000821593684949 0.000685602255323 0
-0.000838666141308 0.000665737189582 0
-0.000855258096071 0.000645446930408 0
-0.000871358958344 0.000624743105174 0
-0.000886958418718 0.000603637605088 0
-0.000902046455848 0.000582142578367 0
-0.000916613342856 0.000560270423259 0
-0.000930649653573 0.000538033780901 0
-0.000944146268601 0.000515445528024 0
-0.000957094381204 0.000492518769501 0
-0.000969485503011 0.000469266830754 0
-0.00098131146954 0.000445703250016 0
-0.000992564445535 0.000421841770452 0
-0.0010032369301 0.000397696332154 0
-0.00101332176167 0.000373281063994 0
-0.00102281212272 0.000348610275367 0
-0.00103170154434 0.000323698447809 0
-0.00103998391059 0.000298560226491 0
-0.00104765346261 0.000273210411624 0
-0.00105470480255 0.000247663949736 0
-0.0010611328973 0.000221935924872 0
-0.00106693308198 0.000196041549681 0
-0.00107210106322 0.000169996156426 0
-0.00107663292221 0.000143815187906 0
-0.00108052511757 0.000117514188301 0
-0.00108377448793 9.11087939409e-05 0
-0.00108637825435 6.46147240146e-05 0
-0.00108833402245 3.80477712087e-05 0
-0.00108963978438 1.14237922953e-05 0
-0.00109029392049 -1.52413013322e-05 0
-0.00109029520083 -4.19315531687e-05 0
-0.00108964278636 -6.86309711454e-05 0
-0.00108833622997 -9.53235372119e-05 0
-0.00108637547724 -0.000121993216946 0
-0.00108376086699 -0.000148623969187 0
-0.00108049313155 -0.00017519975568 0
-0.00107657339685 -0.000201704550739 0
-0.0010720031822 -0.000228122350906 0
-0.00106678439994 -0.000254437184617 0
-0.00106091935471 -0.000280633121855 0
-0.00105441074262 -0.00030669428379 0
-0.00104726165011 -0.000332604852407 0
-0.00103947555257 -0.000358349080101 0
-0.00103105631274 -0.000383911299248 0
-0.00102200817891 -0.000409275931735 0
-0.0010123357828 -0.000434427498455 0
-0.0010020441373 -0.000459350628745 0
-0.000991138633921 -0.000484030069776 0
-0.00097962504 -0.000508450695885 0
-0.000967509495746 -0.00053259751784 0
-0.000954798510985 -0.000556455692033 0
-0.00094149896172 -0.000580010529597 0
-0.000927618086448 -0.000603247505447 0
-0.00091316348226 -0.000626152267225 0
-0.000898143100723 -0.000648710644156 0
-0.000882565243532 -0.00067090865581 0
-0.000866438557962 -0.00069273252075 0
-0.000849772032089 -0.000714168665081 0
-0.000832574989812 -0.000735203730881 0
-0.000814857085664 -0.000755824584507 0
-0.000796628299408 -0.000776018324787 0
-0.000777898930446 -0.000795772291071 0
-0.000758679592015 -0.000815074071156 0
-0.000738981205191 -0.000833911509064 0
-0.000718814992707 -0.000852272712682 0
-0.000698192472566 -0.000870146061246 0
-0.000677125451486 -0.000887520212677 0
-0.000655626018149 -0.000904384110751 0
-0.000633706536277 -0.000920726992112 0
-0.000611379637538 -0.000936538393117 0
-0.000588658214272 -0.000951808156502 0
-0.00056555541206 -0.000966526437879 0
-0.000542084622125 -0.000980683712052 0
-0.000518259473581 -0.00099427077914 0
-0.000494093825522 -0.00100727877052 0
-0.00046960175897 -0.0010196991546 0
-0.000444797568676 -0.0010315237423 0
-0.00041969575478 -0.00104274469251 0
-0.000394311014342 -0.00105335451715 0
-0.000368658232738 -0.00106334608615 0
-0.000342752474938 -0.00107271263219 0
-0.000316608976658 -0.00108144775522 0
-0.000290243135409 -0.00108954542674 0
-0.000263670501421 -0.00109699999392 0
-0.000236906768485 -0.00110380618344 0
-0.000209967764677 -0.00110995910515 0
-0.000182869443 -0.00111545425548 0
-0.000155627871943 -0.00112028752061 0
-0.000128259225948 -0.00112445517947 0
-0.00010077977581 -0.00112795390639 0
-7.32058790025e-05 -0.00113078077367 0
-4.55539699429e-05 -0.00113293325376 0
-1.7840550196e-05 -0.00113440922134 0
9.9178213729e-06 -0.00113520695502 0
3.7704538492e-05 -0.00113532513892 0
6.55029574177e-05 -0.00113476286396 0
9.32964069038e-05 -0.00113351962888 0
0.000121068198199 -0.00113159534107 0
0.00014880163507 -0.00112899031708 0
0.000176480023834 -0.00112570528298 0
0.000204086683413 -0.00112174137442 0
0.000231604955382 -0.00111710013639 0
0.000259018214022 -0.00111178352287 0
0.000286309876364 -0.0011057938961 0
0.000313463412218 -0.00109913402566 0
0.000340462354186 -0.00109180708732 0
0.000367290307644 -0.00108381666163 0
0.000393930960697 -0.00107516673221 0
0.000420368094097 -0.00106586168392 0
0.000446585591107 -0.00105590630063 0
0.000472567447332 -0.00104530576288 0
0.000498297780477 -0.00103406564522 0
0.000523760840057 -0.00102219191336 0
0.000548941017031 -0.00100969092101 0
0.000573822853365 -0.000996569406576 0
0.000598391051517 -0.000982834489541 0
0.000622630483832 -0.000968493666654 0
0.000646526201854 -0.000953554807877 0
0.000670063445532 -0.000938026152094 0
0.000693227652332 -0.00092191630261 0
0.000716004466234 -0.000905234222406 0
0.00073837974662 -0.000887989229186 0
0.000760339577043 -0.000870190990197 0
0.000781870273866 -0.000851849516835 0
0.000802958394779 -0.000832975159037 0
0.000823590747174 -0.000813578599461 0
0.000843754396385 -0.00079367084746 0
0.000863436673779 -0.00077326323285 0
0.000882625184695 -0.000752367399481 0
0.000901307816237 -0.00073099529861 0
0.00091947274489 -0.000709159182077 0
0.000937108443988 -0.000686871595297 0
0.000954203691004 -0.000664145370065 0
0.000970747574659 -0.000640993617178 0
0.000986729501867 -0.000617429718882 0
0.00100213920449 -0.00059346732115 0
0.00101696674588 -0.000569120325783 0
0.00103120252731 -0.000544402882356 0
0.00104483729407 -0.00051932938 0
0.00105786214153 -0.000493914439034 0
0.00107026852085 -0.000468172902446 0
0.00108204824457 -0.000442119827226 0
0.001093193492 -0.000415770475567 0
0.0011036968143 -0.000389140305927 0
0.00111355113943 -0.000362244963964 0
0.00112274977688 -0.000335100273345 0
0.00113128642212 -0.000307722226443 0
0.00113915516083 -0.000280126974912 0
0.00114635047298 -0.000252330820165 0
0.00115286723657 -0.000224350203744 0
0.0011587007312 -0.000196201697596 0
0.00116384664139 -0.000167901994258 0
0.00116830105965 -0.000139467896962 0
0.00117206048931 -0.000110916309655 0
0.00117512184712 -8.22642269508e-05 0
0.0011774824656 -5.35287240176e-05 0
0.00117914009509 -2.47269463986e-05 0
0.00118009290566 4.12390021612e-06 0
0.00118033948867 3.30065602687e-05 0
0.00117987885813 6.19037386535e-05 0
0.00117871045177 9.07981110739e-05 0
0.0011768341319 0.000119672334428 0
0.00117425018598 0.00014850905722 0
0.00117095932696 0.000177290929983 0
0.00116696269335 0.000206000615721 0
0.00116226184901 0.000234620800351 0
0.00115685878274 0.000263134203142 0
0.00115075590758 0.00029152358715 0
0.00114395605984 0.000319771769634 0
0.00113646249791 0.000347861632461 0
0.00112827890078 0.000375776132469 0
0.00111940936632 0.000403498311814 0
0.00110985840932 0.000431011308265 0
0.00109963095924 0.000458298365457 0
0.00108873235777 0.000485342843095 0
0.00107716835606 0.000512128227101 0
0.00106494511174 0.000538638139686 0
0.00105206918574 0.000564856349367 0
0.00103854753874 0.000590766780897 0
0.00102438752751 0.000616353525115 0
0.00100959690093 0.000641600848709 0
0.000994183795772 0.000666493203883 0
0.000978156732282 0.000691015237924 0
0.000961524609479 0.000715151802664 0
0.000944296700258 0.000738887963824 0
0.000926482646245 0.000762209010251 0
0.000908092452423 0.000785100463019 0
0.000889136481542 0.000807548084408 0
0.000869625448299 0.00082953788675 0
0.000849570413303 0.000851056141125 0
0.000828982776823 0.000872089385924 0
0.000807874272329 0.00089262443525 0
0.000786256959818 0.000912648387169 0
0.000764143218939 0.000932148631799 0
0.00074154574192 0.000951112859226 0
0.000718477526295 0.000969529067262 0
0.000694951867442 0.00098738556901 0
0.000670982350928 0.00100467100026 0
0.000646582844677 0.0010213743267 0
0.000621767490955 0.00103748485093 0
0.000596550698179 0.00105299221927 0
0.000570947132565 0.0010678864284 0
0.000544971709599 0.00108215783177 0
0.000518639585356 0.00109579714582 0
0.000491966147664 0.00110879545597 0
0.000464967007116 0.00112114422241 0
0.00043765798794 0.00113283528567 0
0.000410055118723 0.00114386087194 0
0.000382174623015 0.00115421359823 0
0.000354032909791 0.00116388647722 0
0.000325646563796 0.00117287292193 0
0.000297032335778 0.00118116675013 0
0.0002682071326 0.00118876218856 0
0.000239188007257 0.00119565387679 0
0.000209992148785 0.001201836871 0
0.000180636872081 0.00120730664739 0
0.000151139607638 0.00121205910537 0
0.000121517891191 0.00121609057053 0
9.17893532975e-05 0.00121939779733 0
6.19717088404e-05 0.00122197797152 0
3.20827464746e-05 0.00122382871236 0
2.14031801345e-06 0.00122494807452 0
-2.7837672233e-05 0.00122533454977 0
-5.78332781645e-05 0.00122498706833 0
-8.78285226334e-05 0.00122390500008 0
-0.000117805408219 0.0012220881554 0
-0.000147745928027 0.00121953678578 0
-0.000177632076503 0.00121625158418 0
-0.000207445860265 0.00121223368514 0
-0.000237169308932 0.00120748466454 0
-0.000266784485956 0.00120200653922 0
-0.000296273499448 0.00119580176619 0
-0.000325618512983 0.00118887324174 0
-0.000354801756387 0.00118122430012 0
-0.000383805536498 0.00117285871207 0
-0.000412612247893 0.00116378068302 0
-0.000441204383567 0.0011539948511 0
-0.000469564545575 0.00114350628477 0
-0.000497675455612 0.00113232048033 0
-0.000525519965541 0.00112044335903 0
-0.000553081067845 0.00110788126406 0
-0.000580341906012 0.00109464095714 0
-0.000607285784842 0.00108072961497 0
-0.000633896180666 0.00106615482539 0
-0.000660156751468 0.00105092458324 0
-0.000686051346922 0.00103504728604 0
-0.000711564018313 0.00101853172938 0
-0.000736679028351 0.0010013871021 0
-0.000761380860872 0.000983622981172 0
-0.000785654230416 0.000965249326407 0
-0.000809484091669 0.000946276474887 0
-0.000832855648784 0.000926715135167 0
-0.000855754364554 0.000906576381261 0
-0.000878165969436 0.000885871646386 0
-0.000900076470436 0.000864612716497 0
-0.000921472159829 0.000842811723589 0
-0.000942339623713 0.000820481138794 0
-0.00096266575041 0.000797633765261 0
-0.000982437738678 0.000774282730828 0
-0.00100164310576 0.000750441480496 0
-0.00102026969523 0.000726123768692 0
-0.00103830568469 0.000701343651353 0
-0.00105573959322 0.000676115477806 0
-0.00107256028867 0.000650453882471 0
-0.00108875699477 0.000624373776378 0
-0.00110431929795 0.000597890338512 0
-0.00111923715403 0.000571019006985 0
-0.00113350089468 0.000543775470044 0
-0.00114710123365 0.000516175656914 0
-0.00116002927273 0.000488235728495 0
-0.00117227650758 0.000459972067896 0
-0.00118383483328 0.000431401270842 0
-0.0011946965496 0.000402540135923 0
-0.00120485436611 0.000373405654728 0
-0.00121430140701 0.000344015001838 0
-0.00122303121573 0.000314385524711 0
-0.00123103775924 0.000284534733437 0
-0.00123831543218 0.000254480290396 0
-0.00124485906071 0.00022423999981 0
-0.00125066390605 0.000193831797194 0
-0.00125572566784 0.00016327373872 0
-0.00126004048721 0.000132583990495 0
-0.00126360494957 0.000101780817767 0
-0.00126641608716 7.08825740478e-05 0
-0.00126847138133 3.99076901814e-05 0
-0.00126976876453 8.87466335e-06 0
-0.00127030662207 -2.21979539726e-05 0
-0.00127008379358 -5.32915651121e-05 0
-0.00126909957421 -8.43875403236e-05 0
-0.00126735371553 -0.000115467227954 0
-0.0012648464262 -0.000146511965627 0
-0.00126157837235 -0.000177503091454 0
-0.00125755067768 -0.000208421955248 0
-0.00125276492327 -0.000239249929746 0
-0.00124722314713 -0.000269968421835 0
-0.0012409278435 -0.000300558883762 0
-0.00123388196182 -0.000331002824332 0
-0.00122608890547 -0.000361281820087 0
-0.00121755253021 -0.000391377526449 0
-0.00120827714238 -0.000421271688839 0
-0.00119826749676 -0.000450946153742 0
-0.00118752879425 -0.000480382879729 0
-0.00117606667919 -0.000509563948425 0
-0.00116388723647 -0.000538471575415 0
-0.00115099698834 -0.000567088121071 0
-0.00113740289099 -0.000595396101321 0
-0.0011231123308 -0.000623378198322 0
-0.00110813312042 -0.000651017271049 0
-0.00109247349448 -0.000678296365792 0
-0.00107614210514 -0.000705198726547 0
-0.00105914801733 -0.000731707805302 0
-0.00104150070374 -0.000757807272209 0
-0.00102321003959 -0.000783481025635 0
-0.0010042862971 -0.000808713202083 0
-0.000984740139772 -0.000833488185992 0
-0.000964582616393 -0.000857790619381 0
-0.000943825154813 -0.000881605411367 0
-0.000922479555484 -0.000904917747515 0
-0.000900557984771 -0.000927713099047 0
-0.000878072968039 -0.000949977231878 0
-0.000855037382504 -0.000971696215489 0
-0.00083146444988 -0.000992856431631 0
-0.000807367728801 -0.00101344458284 0
-0.000782761107036 -0.00103344770078 0
-0.000757658793495 -0.00105285315438 0
-0.000732075310037 -0.0010716486578 0
-0.000706025483077 -0.0010898222782 0
-0.000679524435005 -0.00110736244324 0
-0.000652587575412 -0.00112425794848 0
-0.000625230592143 -0.00114049796448 0
-0.000597469442159 -0.0011560720437 0
-0.000569320342245 -0.00117097012721 0
-0.000540799759534 -0.00118518255116 0
-0.000511924401887 -0.00119870005297 0
-0.000482711208102 -0.00121151377736 0
-0.000453177337986 -0.00122361528211 0
-0.000423340162279 -0.00123499654354 0
-0.000393217252437 -0.00124564996184 0
-0.00036282637029 -0.001255568366 0
-0.000332185457569 -0.00126474501869 0
-0.000301312625317 -0.00127317362067 0
-0.000270226143185 -0.00128084831509 0
-0.00023894442862 -0.0012877636915 0
-0.000207486035961 -0.00129391478953 0
-0.000175869645426 -0.00129929710238 0
-0.000144114052025 -0.00130390658 0
-0.000112238154389 -0.00130773963202 0
-8.02609435178e-05 -0.00131079313039 0
-4.82014914714e-05 -0.00131306441176 0
-1.60789399912e-05 -0.00131455127954 0
1.60875109273e-05 -0.00131525200577 0
4.82786145107e-05 -0.0013151653326 0
8.04750887242e-05 -0.0013142904736 0
0.000112657627821 -0.00131262711467 0
0.000144806913919 -0.00131017541479 0
0.000176903628596 -0.00130693600637 0
0.000208928464497 -0.00130290999544 0
0.000240862136951 -0.00129809896139 0
0.000272685395577 -0.00129250495663 0
0.000304379035898 -0.00128613050576 0
0.000335923910918 -0.00127897860461 0
0.000367300942698 -0.00127105271893 0
0.000398491133887 -0.00126235678278 0
0.000429475579224 -0.00125289519667 0
0.000460235476996 -0.00124267282544 0
0.000490752140442 -0.00123169499576 0
0.000521007009108 -0.00121996749347 0
0.000550981660127 -0.00120749656056 0
0.000580657819437 -0.00119428889193 0
0.000610017372917 -0.0011803516318 0
0.00063904237744 -0.0011656923699 0
0.000667715071834 -0.00115031913741 0
0.000696017887743 -0.00113424040256 0
0.000723933460388 -0.00111746506603 0
0.000751444639217 -0.00110000245602 0
0.000778534498426 -0.00108186232312 0
0.000805186347376 -0.00106305483488 0
0.000831383740856 -0.00104359057016 0
0.000857110489232 -0.00102348051318 0
0.000882350668433 -0.00100273604733 0
0.000907088629803 -0.000981368948793 0
0.000931309009786 -0.000959391379844 0
0.00095499673946 -0.000936815881956 0
0.000978137053894 -0.00091365536866 0
0.00100071550134 -0.000889923118175 0
0.00102271795224 -0.000865632765805 0
0.00104413060804 -0.000840798296126 0
0.00106494000987 -0.00081543403494 0
0.00108513304692 -0.000789554641027 0
0.00110469696473 -0.000763175097681 0
0.00112361937318 -0.000736310704048 0
0.00114188825437 -0.000708977066259 0
0.00115949197018 -0.000681190088374 0
0.00117641926966 -0.000652965963135 0
0.00119265929622 -0.000624321162536 0
0.00120820159454 -0.000595272428219 0
0.00122303611727 -0.000565836761689 0
0.00123715323149 -0.000536031414374 0
0.00125054372493 -0.000505873877515 0
0.00126319881194 -0.000475381871908 0
0.00127511013921 -0.000444573337492 0
0.00128626979123 -0.000413466422801 0
0.0012966702955 -0.00038207947427 0
0.00130630462747 -0.000350431025423 0
0.00131516621525 -0.000318539785925 0
0.001323248944 -0.00028642463053 0
0.00133054716007 -0.000254104587905 0
0.00133705567489 -0.00022159882936 0
0.00134276976857 -0.000188926657476 0
0.00134768519318 -0.000156107494642 0
0.00135179817586 -0.000123160871513 0
0.00135510542148 -9.01064153846e-05 0
0.0013576041152 -5.69638385019e-05 0
0.00135929192459 -2.37529263039e-05 0
0.00136016700157 9.50647438802e-06 0
0.00136022798398 4.27944672303e-05 0
0.00135947399694 7.60911182597e-05 0
0.00135790465383 0.00010937646783 0
0.00135552005707 0.000142630542579 0
0.00135232079849 0.000175833367409 0
0.00134830795957 0.000208964977489 0
0.00134348311121 0.000242005430261 0
0.00133784831331 0.000274934817437 0
0.00133140611406 0.000307733277001 0
0.00132415954889 0.000340381005182 0
0.00131611213911 0.000372858268417 0
0.00130726789035 0.000405145415272 0
0.00129763129061 0.000437222888334 0
0.00128720730807 0.000469071236058 0
0.00127600138857 0.000500671124553 0
0.00126401945287 0.000532003349325 0
0.00125126789355 0.00056304884694 0
0.00123775357162 0.00059378870662 0
0.00122348381294 0.000624204181763 0
0.00120846640424 0.000654276701364 0
0.00119270958894 0.000683987881356 0
0.00117622206262 0.000713319535842 0
0.00115901296833 0.000742253688219 0
0.00114109189146 0.00077077258219 0
0.00112246885452 0.000798858692653 0
0.00110315431149 0.000826494736467 0
0.001083159142 0.000853663683073 0
0.00106249464526 0.000880348764986 0
0.00104117253365 0.000906533488129 0
0.00101920492611 0.000932201642021 0
0.000996604341319 0.000957337309799 0
0.0009733836905 0.000981924878076 0
0.000949556270122 0.00100594904663 0
0.000925135754282 0.0010293948379 0
0.000900136186865 0.00105224760634 0
0.000874571973493 0.00107449304749 0
0.000848457873228 0.00109611720697 0
0.000821808990065 0.00111710648922 0
0.000794640764206 0.00113744766595 0
0.000766968963126 0.00115712788456 0
0.000738809672427 0.00117613467614 0
0.000710179286499 0.00119445596344 0
0.000681094498979 0.00121208006842 0
0.000651572293029 0.00122899571976 0
0.000621629931419 0.00124519205996 0
0.000591284946443 0.00126065865234 0
0.000560555129658 0.00127538548768 0
0.000529458521455 0.0012893629907 0
0.00049801340047 0.00130258202621 0
0.00046623827285 0.00131503390508 0
0.000434151861359 0.00132671038985 0
0.00040177309435 0.0013376037002 0
0.000369121094602 0.00134770651802 0
0.000336215168028 0.00135701199229 0
0.000303074792262 0.00136551374367 0
0.00026971960513 0.00137320586878 0
0.000236169393013 0.00138008294426 0
0.000202444079117 0.00138614003046 0
0.000168563711634 0.0013913726749 0
0.000134548451832 0.00139577691548 0
0.000100418562053 0.00139934928327 0
6.61943936455e-05 0.00140208680513 0
3.18963748307e-05 0.001403987006 0
-2.45500149424e-06 0.00140504791084 0
-3.68391899983e-05 0.00140526804635 0
-7.12356052054e-05 0.00140464644234 0
-0.000105623633818 0.00140318263281 0
-0.000139982647073 0.00140087665672 0
-0.00017429201311 0.00139772905849 0
-0.000208531109369 0.00139374088816 0
-0.00024267933498 0.00138891370128 0
-0.000276716123157 0.00138324955844 0
-0.000310620953589 0.00137675102455 0
-0.000344373364808 0.00136942116783 0
-0.000377952966536 0.0013612635584 0
-0.000411339452002 0.00135228226668 0
-0.000444512610223 0.00134248186145 0
-0.000477452338235 0.00133186740754 0
-0.000510138653274 0.00132044446334 0
-0.000542551704899 0.00130821907791 0
-0.000574671787039 0.00129519778783 0
-0.000606479349975 0.0012813876138 0
-0.000637955012234 0.00126679605683 0
-0.000669079572397 0.00125143109428 0
-0.000699834020804 0.00123530117547 0
-0.000730199551164 0.00121841521712 0
-0.000760157572045 0.00120078259844 0
-0.000789689718258 0.00118241315594 0
-0.0008187778621 0.00116331717798 0
-0.000847404124483 0.00114350539903 0
-0.000875550885907 0.00112298899369 0
-0.000903200797305 0.00110177957035 0
-0.000930336790722 0.0010798891647 0
-0.000956942089841 0.00105733023289 0
-0.000983000220346 0.00103411564449 0
-0.00100849502011 0.00101025867511 0
-0.00103341064921 0.000985772998903 0
-0.00105773159975 0.000960672680664 0
-0.00108144270551 0.000934972167819 0
-0.00110452915136 0.000908686282102 0
-0.00112697648253 0.000881830211019 0
-0.00114877061364 0.000854419499088 0
-0.0011698978375 0.000826470038849 0
-0.00119034483374 0.000797998061662 0
-0.00121009867713 0.000769020128287 0
-0.00122914684581 0.000739553119261 0
-0.00124747722914 0.00070961422507 0
-0.00126507813537 0.000679220936129 0
-0.00128193829913 0.000648391032569 0
-0.00129804688853 0.000617142573841 0
-0.00131339351217 0.000585493888143 0
-0.00132796822572 0.000553463561671 0
-0.0013417615384 0.000521070427714 0
-0.00135476441907 0.000488333555577 0
-0.00136696830214 0.000455272239363 0
-0.00137836509312 0.000421905986603 0
-0.00138894717399 0.000388254506746 0
-0.00139870740817 0.000354337699522 0
-0.00140763914535 0.000320175643174 0
-0.00141573622589 0.000285788582572 0
-0.00142299298501 0.00025119691722 0
-0.0014294042567 0.000216421189154 0
-0.00143496537726 0.000181482070742 0
-0.00143967218862 0.000146400352399 0
-0.00144352104131 0.000111196930213 0
-0.00144650879714 7.58927935025e-05 0
-0.00144863283157 4.0509012298e-05 0
-0.00144989103582 5.06672476996e-06 0
-0.00145028181858 -3.04128753999e-05 0
-0.0014498041075 -6.59085516918e-05 0
-0.00144845735033 -0.000101399037459 0
-0.00144624151573 -0.000136863048671 0
-0.00144315709381 -0.000172279296674 0
-0.00143920509634 -0.000207626500974 0
-0.00143438705661 -0.000242883402021 0
-0.00142870502907 -0.000278028773996 0
-0.00142216158854 -0.00031304143759 0
-0.00141475982918 -0.000347900272765 0
-0.00140650336314 -0.000382584231492 0
-0.00139739631888 -0.000417072350464 0
-0.00138744333919 -0.000451343763758 0
-0.0013766495789 -0.000485377715464 0
-0.00136502070225 -0.000519153572249 0
-0.00135256287999 -0.000552650835867 0
-0.00133928278617 -0.000585849155596 0
-0.00132518759462 -0.000618728340598 0
-0.00131028497506 -0.000651268372197 0
-0.00129458308905 -0.000683449416063 0
-0.00127809058552 -0.000715251834296 0
-0.00126081659601 -0.00074665619741 0
-0.00124277072971 -0.000777643296192 0
-0.0012239630681 -0.000808194153452 0
-0.00120440415937 -0.000838290035634 0
-0.00118410501251 -0.000867912464302 0
-0.00116307709114 -0.000897043227471 0
-0.0011413323071 -0.000925664390804 0
-0.00111888301366 -0.000953758308636 0
-0.00109574199858 -0.000981307634851 0
-0.00107192247678 -0.00100829533358 0
-0.0010474380829 -0.00103470468971 0
-0.00102230286341 -0.00106051931927 0
-0.000996531268641 -0.00108572317951 0
-0.000970138144472 -0.00111030057892 0
-0.000943138723773 -0.00113423618696 0
-0.000915548617642 -0.00115751504362 0
-0.000887383806383 -0.00118012256872 0
-0.000858660630266 -0.00120204457105 0
-0.000829395780049 -0.00122326725728 0
-0.000799606287295 -0.00124377724055 0
-0.00076930951446 -0.00126356154897 0
-0.000738523144789 -0.00128260763375 0
-0.000707265171993 -0.00130090337714 0
-0.000675553889746 -0.00131843710015 0
-0.000643407880979 -0.00133519756991 0
-0.000610846006996 -0.0013511740069 0
-0.000577887396412 -0.00136635609181 0
-0.000544551433921 -0.00138073397218 0
-0.000510857748898 -0.00139429826875 0
-0.000476826203839 -0.00140704008155 0
-0.000442476882663 -0.00141895099569 0
-0.000407830078853 -0.00143002308685 0
-0.000372906283477 -0.00144024892652 0
-0.000337726173061 -0.00144962158692 0
-0.000302310597358 -0.00145813464563 0
-0.000266680566989 -0.00146578218991 0
-0.000230857240975 -0.00147255882074 0
-0.000194861914181 -0.00147845965654 0
-0.000158716004649 -0.00148348033658 0
-0.000122441040862 -0.0014876170241 0
-8.60586489137e-05 -0.00149086640909 0
-4.95905396247e-05 -0.00149322571076 0
-1.30584955805e-05 -0.00149469267973 0
2.35156418771e-05 -0.00149526559989 0
6.01099857082e-05 -0.00149494328985 0
9.67026162729e-05 -0.00149372510425 0
0.000133271594461 -0.00149161093459 0
0.000169794974845 -0.00148860120978 0
0.000206250818851 -0.00148469689645 0
0.000242617207934 -0.0014798994988 0
0.000278872256758 -0.00147421105826 0
0.000314994126367 -0.00146763415269 0
0.000350961037336 -0.00146017189541 0
0.000386751282903 -0.00145182793378 0
0.000422343242073 -0.00144260644753 0