<?xml version="1.0"?>
<VTKFile type="PolyData" version="0.1" byte_order="LittleEndian">
  <PolyData>
    <Piece NumberOfPoints="1140" NumberOfLines="1" NumberOfVerts="240">
      <PointData Scalars="class_id">
        <DataArray type="Int32" Name="class_id" format="ascii">0 0 0 0 0 0 0 0 0 0 0 0 0 0 0 0 0 0 0 0 0 0 0 0 0 0 0 0 0 0 0 0 0 0 0 0 0 0 0 0 0 0 0 0 0 0 0 0 0 0 0 0 0 0 0 0 0 0 0 0 0 0 0 0 0 0 0 0 0 0 0 0 0 0 0 0 0 0 0 0 0 0 0 0 0 0 0 0 0 0 0 0 0 0 0 0 0 0 0 0 0 0 0 0 0 0 0 0 0 0 0 0 0 0 0 0 0 0 0 0 0 0 0 0 0 0 0 0 0 0 0 0 0 0 0 0 0 0 0 0 0 0 0 0 0 0 0 0 0 0 0 0 0 0 0 0 0 0 0 0 0 0 0 0 0 0 0 0 0 0 0 0 0 0 0 0 0 0 0 0 0 0 0 0 0 0 0 0 0 0 0 0 0 0 0 0 0 0 0 0 0 0 0 0 0 0 0 0 0 0 0 0 0 0 0 0 0 0 0 0 0 0 0 0 0 0 0 0 0 0 0 0 0 0 0 0 0 0 0 0 0 0 0 0 0 0 0 0 0 0 0 0 0 0 0 0 0 0 0 0 0 0 0 0 0 0 0 0 0 0 0 0 0 0 0 0 0 0 0 0 0 0 0 0 0 0 0 0 0 0 0 0 0 0 0 0 0 0 0 0 0 0 0 0 0 0 0 0 0 0 0 0 0 0 0 0 0 0 0 0 0 0 0 0 0 0 0 0 0 0 0 0 0 0 0 0 0 0 0 0 0 0 0 0 0 0 0 0 0 0 0 0 0 0 0 0 0 0 0 0 0 0 0 0 0 0 0 0 0 0 0 0 0 0 0 0 0 0 0 0 0 0 0 0 0 0 0 0 0 0 0 0 0 0 0 0 0 0 0 0 0 0 0 0 0 0 0 0 0 0 0 0 0 0 0 0 0 0 0 0 0 0 0 0 0 0 0 0 0 0 0 0 0 0 0 0 0 0 0 0 0 0 0 0 0 0 0 0 0 0 0 0 0 0 0 0 0 0 0 0 0 0 0 0 0 0 0 0 0 0 0 0 0 0 0 0 0 0 0 0 0 0 0 0 0 0 0 0 0 0 0 0 0 0 0 0 0 0 0 0 0 0 0 0 0 0 0 0 0 0 0 0 0 0 0 0 0 0 0 0 0 0 0 0 0 0 0 0 0 0 0 0 0 0 0 0 0 0 0 0 0 0 0 0 0 0 0 0 0 0 0 0 0 0 0 0 0 0 0 0 0 0 0 0 0 0 0 0 0 0 0 0 0 0 0 0 0 0 0 0 0 0 0 0 0 0 0 0 0 0 0 0 0 0 0 0 0 0 0 0 0 0 0 0 0 0 0 0 0 0 0 0 0 0 0 0 0 0 0 0 0 0 0 0 0 0 0 0 0 0 0 0 0 0 0 0 0 0 0 0 0 0 0 0 0 0 0 0 0 0 0 0 0 0 0 0 0 0 0 0 0 0 0 0 0 0 0 0 0 0 0 0 0 0 0 0 0 0 0 0 0 0 0 0 0 0 0 0 0 0 0 0 0 0 0 0 0 0 0 0 0 0 0 0 0 0 0 0 0 0 0 0 0 0 0 0 0 0 0 0 0 0 0 0 0 0 0 0 0 0 0 0 0 0 0 0 0 0 0 0 0 0 0 0 0 0 0 0 0 0 0 0 0 0 0 0 0 0 0 0 0 0 0 0 0 0 0 0 0 0 0 0 0 0 0 0 0 0 0 0 0 0 0 0 0 0 0 0 0 0 0 0 0 0 0 0 0 0 0 0 0 0 0 0 0 0 0 0 0 0 0 0 0 0 0 0 0 0 0 0 0 0 0 0 0 0 0 0 0 0 0 0 0 0 0 0 0 0 0 0 0 0 0 0 0 0 0 0 0 0 0 0 0 0 0 0 0 0 0 0 0 0 0 0 0 0 0 0 0 0 0 0 0 0 0 0 0 0 0 0 0 0 0 0 0 0 0 0 0 0 0 0 0 0 0 0 0 0 0 0 2 2 2 2 2 2 2 2 2 2 2 2 2 2 2 2 2 2 2 2 2 2 2 2 2 2 2 2 2 2 2 2 2 2 2 2 2 2 2 2 2 2 2 2 2 2 2 2 2 2 2 2 2 2 2 2 2 2 2 2 2 2 2 2 2 2 2 2 2 2 2 2 2 2 2 2 2 2 2 2 2 2 2 2 2 2 2 2 2 2 2 2 2 2 2 2 2 2 2 2 2 2 2 2 2 2 2 2 2 2 2 2 2 2 2 2 2 2 2 2 1 1 1 1 1 1 1 1 1 1 1 1 1 1 1 1 1 1 1 1 1 1 1 1 1 1 1 1 1 1 1 1 1 1 1 1 1 1 1 1 1 1 1 1 1 1 1 1 1 1 1 1 1 1 1 1 1 1 1 1 1 1 1 1 1 1 1 1 1 1 1 1 1 1 1 1 1 1 1 1 1 1 1 1 1 1 1 1 1 1 1 1 1 1 1 1 1 1 1 1 1 1 1 1 1 1 1 1 1 1 1 1 1 1 1 1 1 1 1 1</DataArray>
      </PointData>
      <Points>
        <DataArray type="Float32" NumberOfComponents="3" format="ascii">
0.001 0 0
0.00100040982417 2.79750762147e-05 0
0.00100003657098 5.59730463089e-05 0
0.000998879281558 8.39719772414e-05 0
0.00099693761171 0.000111949900284 0
0.00099421183317 0.000139884828256 0
0.000990702834364 0.000167754772809 0
0.000986412120684 0.000195537761725 0
0.000981341814277 0.000223211856246 0
0.00097549465335 0.00025075516839 0
0.00096887399099 0.000278145878264 0
0.000961483793487 0.000305362251344 0
0.000953328638185 0.000332382655718 0
0.000944413710836 0.000359185579276 0
0.000934744802481 0.000385749646831 0
0.000924328305837 0.000412053637155 0
0.000913171211215 0.000438076499929 0
0.000901281101955 0.000463797372575 0
0.000888666149385 0.000489195596976 0
0.000875335107316 0.000514250736052 0
0.000861297306058 0.000538942590191 0
0.000846562645983 0.000563251213522 0
0.000831141590624 0.000587156930008 0
0.000815045159316 0.000610640349354 0
0.000798284919395 0.000633682382713 0
0.000780872977949 0.000656264258179 0
0.000762821973128 0.000678367536058 0
0.000744145065025 0.000699974123894 0
0.000724855926136 0.00072106629125 0
0.00070496873139 0.000741626684223 0
0.000684498147778 0.000761638339688 0
0.000663459323576 0.000781084699255 0
0.000641867877167 0.000799949622924 0
0.00061973988548 0.000818217402439 0
0.000597091872049 0.000835872774317 0
0.000573940794702 0.000852900932548 0
0.000550304032886 0.000869287540953 0
0.000526199374644 0.000885018745193 0
0.000501645003246 0.000900081184414 0
0.000476659483494 0.000914462002525 0
0.0004512617477 0.000928148859089 0
0.00042547108135 0.000941129939832 0
0.000399307108482 0.000953393966745 0
0.000372789776754 0.000964930207789 0
0.000345939342254 0.000975728486174 0
0.000318776354031 0.000985779189223 0
0.000291321638375 0.000995073276801 0
0.000263596282857 0.0010036022893 0
0.000235621620138 0.00101135835521 0
0.000207419211553 0.00101833419816 0
0.000179010830505 0.00102452314362 0
0.000150418445648 0.00102991912503 0
0.000121664203909 0.00103451668951 0
9.27704133291e-05 0.00103831100309 0
6.37595257592e-05 0.00104129785546 0
3.46541194146e-05 0.00104347366423 0
5.47688130366e-06 0.00104483547872 0
-2.37494104568e-05 0.00104538098321 0
-5.30019044235e-05 0.00104510849976 0
-8.22576936937e-05 0.00104401699048 0
-0.000111493833843 0.00104210605932 0
-0.000140687360921 0.00103937595338 0
-0.000169815309485 0.00103582756366 0
-0.000198854730669 0.00103146242534 0
-0.000227782710261 0.00102628271757 0
-0.000256576386781 0.00102029126271 0
-0.000285212969552 0.00101349152507 0
-0.000313669756727 0.00100588760919 0
-0.00034192415329 0.000997484257564 0
-0.000369953688991 0.000988286847843 0
-0.000397736036206 0.0009783013896 0
-0.000425249027723 0.000967534520539 0
-0.000452470674416 0.000955993502216 0
-0.000479379182815 0.000943686215271 0
-0.00050595297254 0.000930621154153 0
-0.000532170693599 0.000916807421367 0
-0.00055801124353 0.000902254721219 0
-0.000583453784367 0.000886973353092 0
-0.000608477759433 0.000870974204228 0
-0.000633062909928 0.000854268742051 0
-0.00065718929131 0.000836869006013 0
-0.000680837289459 0.000818787598975 0
-0.000703987636588 0.000800037678143 0
-0.000726621426927 0.000780632945539 0
-0.000748720132128 0.000760587638041 0
-0.0007702656164 0.000739916516979 0
-0.000791240151363 0.000718634857308 0
-0.000811626430597 0.000696758436357 0
-0.000831407583879 0.000674303522166 0
-0.000850567191106 0.000651286861421 0
-0.000869089295874 0.000627725666992 0
-0.000886958418718 0.000603637605088 0
-0.000904159569993 0.000579040782033 0
-0.000920678262392 0.000553953730677 0
-0.000936500523082 0.000528395396456 0
-0.000951612905453 0.000502385123094 0
-0.000966002500478 0.000475942637987 0
-0.000979656947654 0.000449088037249 0
-0.000992564445535 0.000421841770452 0
-0.00100471376184 0.000394224625067 0
-0.00101609424312 0.000366257710611 0
-0.00102669582401 0.000337962442521 0
-0.00103650903596 0.000309360525762 0
-0.00104552501564 0.000280473938185 0
-0.00105373551272 0.000251324913641 0
-0.0010611328973 0.000221935924872 0
-0.00106771016682 0.000192329666193 0
-0.00107346095247 0.000162529035964 0
-0.00107837952516 0.000132557118885 0
-0.00108246080093 0.000102437168115 0
-0.00108570034588 7.2192587232e-05 0
-0.00108809438067 4.1846912048e-05 0
-0.00108963978438 1.14237922953e-05 0
-0.00109033409796 -1.90530268054e-05 0
-0.00109017552715 -4.95597230776e-05 0
-0.0010891629448 -8.00724160099e-05 0
-0.00108729589279 -0.000110567185449 0
-0.00108457458332 -0.000141020090354 0
-0.00108099989974 -0.000171407187586 0
-0.00107657339685 -0.000201704550739 0
-0.00107129730059 -0.000231888288974 0
-0.00106517450735 -0.000261934565858 0
-0.00105820858259 -0.000291819618187 0
-0.00105040375906 -0.000321519774774 0
-0.00104176493439 -0.000351011475198 0
-0.00103229766825 -0.000380271288488 0
-0.00102200817891 -0.000409275931735 0
-0.0010109033393 -0.000438002288614 0
-0.000998990672558 -0.000466427427797 0
-0.000986278347069 -0.000494528621253 0
-0.000972775170947 -0.000522283362411 0
-0.000958490586045 -0.000549669384174 0
-0.000943434661447 -0.000576664676775 0
-0.000927618086448 -0.000603247505447 0
-0.000911052163044 -0.000629396427912 0
-0.00089374879793 -0.000655090311657 0
-0.000875720494001 -0.000680308350996 0
-0.000856980341384 -0.000705030083897 0
-0.000837542007986 -0.000729235408559 0
-0.000817419729576 -0.000752904599737 0
-0.000796628299408 -0.000776018324787 0
-0.000775183057387 -0.000798557659427 0
-0.000753099878792 -0.000820504103201 0
-0.000730395162561 -0.000841839594626 0
-0.000707085819143 -0.000862546526022 0
-0.00068318925794 -0.000882607758001 0
-0.000658723374327 -0.000902006633611 0
-0.000633706536277 -0.000920726992112 0
-0.000608157570596 -0.000938753182398 0
-0.000582095748775 -0.000956070076016 0
-0.000555540772471 -0.000972663079811 0
-0.000528512758631 -0.000988518148153 0
-0.00050103222427 -0.00100362179476 0
-0.000473120070906 -0.00101796110409 0
-0.000444797568676 -0.0010315237423 0
-0.000416086340141 -0.00104429796779 0
-0.000387008343782 -0.00105627264124 0
-0.000357585857219 -0.00106743723523 0
-0.000327841460148 -0.0010777818434 0
-0.000297798017017 -0.00108729718907 0
-0.00026747865946 -0.00109597463348 0
-0.000236906768485 -0.00110380618344 0
-0.000206105956452 -0.00111078449853 0
-0.000175100048834 -0.0011169028978 0
-0.000143913065793 -0.00112215536594 0
-0.00011256920357 -0.00112653655895 0
-8.1092815716e-05 -0.00113004180931 0
-4.95083941686e-05 -0.00113266713054 0
-1.7840550196e-05 -0.00113440922134 0
1.38860047808e-05 -0.00113526546913 0
4.56464784708e-05 -0.00113523395308 0
7.74160170871e-05 -0.00113431344657 0
0.000109169724795 -0.00113250341913 0
0.000140882683223 -0.00112980403786 0
0.000172529971015 -0.00112621616823 0
0.000204086683413 -0.00112174137442 0
0.00023552795186 -0.00111638191902 0
0.000266828963589 -0.00111014076227 0
0.000297964981211 -0.00110302156068 0
0.000328911362255 -0.00109502866513 0
0.000359643578674 -0.00108616711844 0
0.000390137236278 -0.00107644265234 0
0.000420368094097 -0.00106586168392 0
0.000450312083641 -0.00105443131158 0
0.000479945328058 -0.00104215931036 0
0.000509244161167 -0.00102905412678 0
0.000538185146349 -0.00101512487314 0
0.000566745095281 -0.00100038132125 0
0.00059490108651 -0.000984833895734 0
0.000622630483832 -0.000968493666654 0
0.000649910954477 -0.000951372341764 0
0.000676720487081 -0.000933482258168 0
0.000703037409427 -0.000914836373496 0
0.000728840405947 -0.000895448256578 0
0.000754108534963 -0.000875332077625 0
0.000778821245661 -0.000854502597921 0
0.000802958394779 -0.000832975159037 0
0.000826500263 -0.000810765671574 0
0.000849427571028 -0.00078789060344 0
0.000871721495347 -0.000764366967681 0
0.000893363683638 -0.000740212309853 0
0.000914336269847 -0.000715444694971 0
0.000934621888894 -0.000690082694021 0
0.000954203691004 -0.000664145370065 0
0.000973065355653 -0.000637652263931 0
0.000991191105123 -0.000610623379514 0
0.00100856571764 -0.000583079168689 0
0.00102517454008 -0.000555040515855 0
0.00104100350029 -0.000526528722109 0
0.00105603911893 -0.000497565489087 0
0.00107026852085 -0.000468172902446 0
0.00108367944605 -0.000438373415042 0
0.00109626026017 -0.000408189829784 0
0.00110799996445 -0.000377645282192 0
0.00111888820524 -0.000346763222675 0
0.00112891528306 -0.000315567398525 0
0.00113807216104 -0.000284081835669 0
0.00114635047298 -0.000252330820165 0
0.00115374253079 -0.000220338879473 0
0.00116024133148 -0.00018813076351 0
0.0011658405636 -0.000155731425506 0
0.00117053461307 -0.000123166002672 0
0.00117431856864 -9.04597966969e-05 0
0.00117718822659 -5.7638254094e-05 0
0.00117914009509 -2.47269463986e-05 0
0.0011801713978 8.24844975196e-06 0
0.00118028007713 4.12621726516e-05 0
0.00117946479673 7.42883956514e-05 0
0.00117772494358 0.000107301247363 0
0.00117506062939 0.000140274831928 0
0.00117147269153 0.000173183249326 0
0.00116696269335 0.000206000615721 0
0.00116153292389 0.000238701083821 0
0.00115518639708 0.000271258863231 0
0.00114792685036 0.000303648240792 0
0.0011397587427 0.000335843600888 0
0.00113068725204 0.000367819445703 0
0.00112071827222 0.000399550415406 0
0.00110985840932 0.000431011308265 0
0.00109811497736 0.000462177100653 0
0.00108549599357 0.00049302296695 0
0.001072010173 0.000523524299307 0
0.0010576669226 0.000553656727273 0
0.00104247633477 0.000583396137254 0
0.00102644918031 0.000612718691802 0
0.00100959690093 0.000641600848709 0
0.000991931601082 0.000670019379894 0
0.000973466039385 0.000697951390071 0
0.000954213619446 0.000725374335177 0
0.000934188380193 0.000752266040547 0
0.000913404985696 0.000778604718829 0
0.000891878714472 0.000804368987609 0
0.000869625448299 0.00082953788675 0
0.000846661660542 0.000854090895413 0
0.000823004403993 0.000878007948764 0
0.000798671298246 0.000901269454335 0
0.000773680516602 0.000923856308044 0
0.000748050772529 0.000945749909847 0
0.000721801305673 0.000966932179011 0
0.000694951867442 0.00098738556901 0
0.000667522706165 0.00100709308201 0
0.00063953455184 0.00102603828293 0
0.000611008600492 0.00104420531314 0
0.000581966498127 0.00106157890361 0
0.000552430324329 0.00107814438774 0
0.000522422575486 0.00109388771363 0
0.000491966147664 0.00110879545597 0
0.000461084319148 0.00112285482736 0
0.000429800732664 0.00113605368923 0
0.000398139377278 0.0011483805622 0
0.000366124570015 0.00115982463597 0
0.000333780937185 0.00117037577872 0
0.000301133395442 0.00118002454589 0
0.0002682071326 0.00118876218856 0
0.000235027588198 0.00119658066118 0
0.000201620433848 0.00120347262887 0
0.000168011553377 0.00120943147405 0
0.000134227022772 0.00121445130261 0
0.00010029308995 0.00121852694946 0
6.62361543659e-05 0.00122165398357 0
3.20827464746e-05 0.00122382871236 0
-2.14049293478e-06 0.00122504818561 0
-3.64068335204e-05 0.0012253101987 0
-7.06894762655e-05 0.00122461329536 0
-0.000104961574438 0.00122295676972 0
-0.000139196254612 0.00122034066792 0
-0.000173366637742 0.00121676578896 0
-0.000207445860265 0.00121223368514 0
-0.00024140709522 0.00120674666173 0
-0.000275223573363 0.00120030777621 0
-0.000308868604267 0.0011929208368 0
-0.000342315597387 0.00118459040043 0
-0.00037553808307 0.00117532177018 0
-0.000408509733502 0.00116512099204 0
-0.000441204383567 0.0011539948511 0
-0.000473596051605 0.00114195086724 0
-0.000505658960056 0.00112899729012 0
-0.000537367555964 0.00111514309365 0
-0.000568696531337 0.0011003979699 0
-0.000599620843335 0.00108477232237 0
-0.000630115734281 0.00106827725879 0
-0.000660156751468 0.00105092458324 0
-0.000689719766755 0.00103272678783 0
-0.000718780995932 0.00101369704374 0
-0.000747317017839 0.000993849191743 0
-0.000775304793226 0.000973197732229 0
-0.000802721683331 0.000951757814629 0
-0.000829545468178 0.000929545226364 0
-0.000855754364554 0.000906576381261 0
-0.00088132704368 0.000882868307463 0
-0.000906242648539 0.000858438634845 0
-0.000930480810856 0.000833305581934 0
-0.000954021667718 0.00080748794236 0
-0.000976845877818 0.000781005070823 0
-0.000998934637303 0.000753876868616 0
-0.00102026969523 0.000726123768692 0
-0.0010408333686 0.000697766720294 0
-0.00106060855696 0.000668827173163 0
-0.00107957875659 0.000639327061329 0
-0.0010977280742 0.000609288786507 0
-0.0011150412402 0.000578735201093 0
-0.00113150362146 0.0005476895908 0
-0.00114710123365 0.000516175656914 0
-0.00116182075298 0.000484217498218 0
-0.00117564952758 0.000451839592564 0
-0.00118857558821 0.000419066778142 0
-0.00120058765856 0.000385924234423 0
-0.00121167516497 0.000352437462827 0
-0.00122182824564 0.000318632267099 0
-0.00123103775924 0.000284534733437 0
-0.00123929529301 0.000250171210356 0
-0.0012465931703 0.000215568288342 0
-0.00125292445751 0.000180752779266 0
-0.00125828297047 0.000145751695621 0
-0.00126266328024 0.000110592229558 0
-0.00126606071834 7.53017317621e-05 0
-0.00126847138133 3.99076901814e-05 0
-0.00126989213488 4.43770861122e-06 0
-0.00127032061718 -3.1080514831e-05 0
-0.00126975524177 -6.66192093356e-05 0
-0.00126819519972 -0.000102150553114 0
-0.00126564046132 -0.00013764669518 0
-0.00126209177697 -0.000173079777177 0
-0.00125755067768 -0.000208421955248 0
-0.00125201947477 -0.000243645421907 0
-0.00124550125905 -0.000278722427925 0
-0.00123799989937 -0.000313625304184 0
-0.00122952004057 -0.000348326483503 0
-0.00122006710076 -0.000382798522409 0
-0.00120964726808 -0.000417014122836 0
-0.00119826749676 -0.000450946153742 0
-0.00118593550264 -0.000484567672613 0
-0.00117265975805 -0.000517851946856 0
-0.0011584494861 -0.000550772475042 0
-0.00114331465438 -0.000583303008003 0
-0.00112726596803 -0.000615417569755 0
-0.00111031486232 -0.000647090478228 0
-0.00109247349448 -0.000678296365792 0
-0.00107375473514 -0.000709010199568 0
-0.00105417215906 -0.00073920730149 0
-0.00103374003537 -0.000768863368123 0
-0.00101247331719 -0.000797954490202 0
-0.000990387630784 -0.000826457171895 0
-0.000967499264104 -0.000854348349756 0
-0.000943825154813 -0.000881605411367 0
-0.000919382877797 -0.000908206213648 0
-0.000894190632157 -0.000934129100817 0
-0.000868267227689 -0.000959352921993 0
-0.00084163207087 -0.000983857048423 0
-0.000814305150359 -0.00100762139032 0
-0.000786307022023 -0.00103062641329 0
-0.000757658793495 -0.00105285315438 0
-0.000728382108284 -0.00107428323761 0
-0.000698499129445 -0.00109489888918 0
-0.000668032522814 -0.00111468295212 0
-0.000637005439837 -0.00113361890055 0
-0.000605441499988 -0.00115169085339 0
-0.000573364772802 -0.00116888358765 0
-0.000540799759534 -0.00118518255116 0
-0.000507771374452 -0.00120057387484 0
-0.000474304925785 -0.0012150443844 0
-0.000440426096338 -0.00122858161154 0
-0.000406160923789 -0.00124117380462 0
-0.000371535780687 -0.00125280993871 0
-0.000336577354152 -0.00126347972518 0
-0.000301312625317 -0.00127317362067 0
-0.000265768848501 -0.00128188283545 0
-0.000229973530154 -0.00128959934129 0
-0.000193954407568 -0.00129631587865 0
-0.000157739427387 -0.00130202596332 0
-0.000121356723925 -0.00130672389248 0
-8.48345973103e-05 -0.0013104047501 0
-4.82014914714e-05 -0.00131306441176 0
-1.14859719867e-05 -0.00131469954884 0
2.52832961915e-05 -0.00131530763212 0
6.20775711162e-05 -0.00131488693472 0
9.88680563125e-05 -0.00131343653444 0
0.000135625923315 -0.00131095631542 0
0.000172322334258 -0.00130744696927 0
0.000208928464497 -0.00130290999544 0
0.000245415525253 -0.00129734770106 0
0.00028175478625 -0.00129076320012 0
0.000317917598335 -0.00128316041192 0
0.000353875416068 -0.00127454405907 0
0.000389599820247 -0.00126491966467 0
0.000425062540369 -0.00125429354899 0
0.000460235476996 -0.00124267282544 0
0.000495090724019 -0.00123006539595 0
0.000529600590793 -0.00121647994573 0
0.000563737624126 -0.00120192593737 0
0.000597474630118 -0.00118641360437 0
0.000630784695812 -0.00116995394403 0
0.000663641210654 -0.00115255870972 0
0.000696017887743 -0.00113424040256 0
0.000727888784851 -0.00111501226256 0
0.000759228325196 -0.00109488825901 0
0.000790011317954 -0.00107388308051 0
0.000820212978491 -0.0010520121242 0
0.000849808948302 -0.00102929148458 0
0.000878775314637 -0.0010057379417 0
0.000907088629803 -0.000981368948793 0
0.000934725930118 -0.000956202619416 0
0.000961664754516 -0.000930257713983 0
0.00098788316277 -0.000903553625834 0
0.00101335975333 -0.000876110366764 0
0.00103807368078 -0.000847948552055 0
0.00106200467283 -0.000819089385012 0
0.00108513304692 -0.000789554641027 0
0.00110743972638 -0.000759366651165 0
0.00112890625611 -0.0007285482853 0
0.00114951481781 -0.000697122934809 0
0.00116924824468 -0.000665114494828 0
0.00118809003575 -0.000632547346102 0
0.00120602436952 -0.000599446336424 0
0.00122303611727 -0.000565836761689 0
0.00123911085567 -0.000531744346572 0
0.00125423487901 -0.000497195224849 0
0.00126839521074 -0.000462215919367 0
0.00128157961459 -0.000426833321696 0
0.00129377660494 -0.000391074671456 0
0.00130497545685 -0.000354967535351 0
0.00131516621525 -0.000318539785925 0
0.00132433970375 -0.000281819580048 0
0.00133248753271 -0.000244835337151 0
0.00133960210678 -0.00020761571724 0
0.00134567663175 -0.000170189598682 0
0.0013507051209 -0.000132586055803 0
0.00135468240056 -9.48343363021e-05 0
0.0013576041152 -5.69638385019e-05 0
0.00135946673175 -1.90040884576e-05 0
0.00136026754339 1.90152830642e-05 0
0.00136000467259 5.70645637149e-05 0
0.00135867707361 9.51139827838e-05 0
0.00135628453424 0.000133133734492 0
0.001352827677 0.000171094001339 0
0.00134830795957 0.000208964977489 0
0.00134272767468 0.000246716892174 0
0.00133608994922 0.000284320033093 0
0.00132839874285 0.000321744769797 0
0.00131965884577 0.000358961577038 0
0.00130987587599 0.000395941058058 0
0.00129905627589 0.000432653967804 0
0.00128720730807 0.000469071236058 0
0.00127433705066 0.000505163990448 0
0.00126045439194 0.000540903579336 0
0.00124556902424 0.000576261594555 0
0.00122969143733 0.000611209893985 0
0.00121283291111 0.000645720623945 0
0.00119500550764 0.000679766241381 0
0.00117622206262 0.000713319535842 0
0.00115649617621 0.000746353651216 0
0.00113584220321 0.000778842107211 0
0.00111427524274 0.000810758820571 0
0.00109181112717 0.000842078126004 0
0.00106846641062 0.000872774796799 0
0.00104425835677 0.00090282406513 0
0.00101920492611 0.000932201642021 0
0.000993324762729 0.000960883736957 0
0.000966637180386 0.000988847077125 0
0.000939162148193 0.00101606892627 0
0.000910920275675 0.00104252710317 0
0.000881932797343 0.00106819999965 0
0.000852221556752 0.00109306659821 0
0.000821808990065 0.00111710648922 0
0.00079071810913 0.00114029988759 0
0.000758972484087 0.00116262764905 0
0.000726596225517 0.00118407128588 0
0.000693613966145 0.00120461298218 0
0.000660050842111 0.00122423560862 0
0.000625932473831 0.00124292273669 0
0.000591284946443 0.00126065865234 0
0.000556134789882 0.00127742836918 0
0.000520508958566 0.00129321764104 0
0.000484434810742 0.001308012974 0
0.000447940087477 0.00132180163787 0
0.000411052891332 0.001334571677 0
0.000373801664731 0.00134631192058 0
0.000336215168028 0.00135701199229 0
0.00029832245731 0.00136666231935 0
0.000260152861934 0.00137525414094 0
0.000221735961832 0.00138277951601 0
0.000183101564587 0.00138923133045 0
0.000144279682306 0.00139460330358 0
0.000105300508309 0.00139888999406 0
6.61943936455e-05 0.00140208680513 0
2.69918234615e-05 0.00140418998911 0
-1.22766067635e-05 0.00140519665136 0
-5.15802150956e-05 0.00140510475351 0
-9.0888257119e-05 0.00140391311603 0
-0.000130169949985 0.00140162142012 0
-0.000169394496521 0.00139823020894 0
-0.000208531109369 0.00139374088816 0
-0.000247549035159 0.00138815572585 0
-0.000286417578667 0.00138147785166 0
-0.000325106126966 0.00137371125533 0
-0.000363584173531 0.00136486078456 0
-0.000401821342298 0.00135493214216 0
-0.000439787411637 0.00134393188254 0
-0.000477452338235 0.00133186740754 0
-0.00051478628087 0.00131874696157 0
-0.000551759624047 0.00130457962609 0
-0.000588343001484 0.00128937531344 0
-0.000624507319435 0.00127314475998 0
-0.000660223779814 0.00125589951864 0
-0.000695463903127 0.00123765195072 0
-0.000730199551164 0.00121841521712 0
-0.000764402949462 0.00119820326893 0
-0.000798046709502 0.00117703083738 0
-0.000831103850622 0.00115491342311 0
-0.000863547821647 0.00113186728492 0
-0.000895352522195 0.00110790942786 0
-0.00092649232366 0.00108305759071 0
-0.000956942089841 0.00105733023289 0
-0.000986677197214 0.0010307465208 0
-0.00101567355482 0.00100332631356 0
-0.00104390762377 0.000975090148205 0
-0.00107135643631 0.000946059224351 0
-0.00109799761447 0.000916255388288 0
-0.00112380938831 0.000885701116571 0
-0.00114877061364 0.000854419499088 0
-0.00117286078934 0.000822434221636 0
-0.00119606007411 0.000789769548003 0
-0.00121834930281 0.000756450301576 0
-0.00123971000224 0.000722501846497 0
-0.00126012440639 0.000687950068363 0
-0.00127957547116 0.000652821354504 0
-0.00129804688853 0.000617142573841 0
-0.0013155231002 0.000580941056344 0
-0.00133198931059 0.000544244572106 0
-0.00134743149931 0.000507081310048 0
-0.00136183643301 0.000469479856272 0
-0.00137519167664 0.000431469172079 0
-0.00138748560409 0.000393078571666 0
-0.00139870740817 0.000354337699522 0
-0.00140884711007 0.000315276507544 0
-0.00141789556802 0.000275925231877 0
-0.00142584448543 0.000236314369518 0
-0.00143268641833 0.000196474654676 0
-0.00143841478214 0.000156437034933 0
-0.00144302385779 0.0001162326472 0
-0.00144650879714 7.58927935025e-05 0
-0.00144886562777 3.54489166143e-05 0
-0.00145009125706 -5.06742445423e-06 0
-0.00145018347557 -4.56245790809e-05 0
-0.00144914095973 -8.61908297563e-05 0
-0.0014469632739 -0.000126734416889 0
-0.00144365087163 -0.000167223563668 0
-0.00143920509634 -0.000207626500974 0
-0.00143362818118 -0.000247911492297 0
-0.00142692324833 -0.000288046858674 0
-0.00141909430745 -0.000328001003594 0
-0.00141014625355 -0.00036774243787 0
-0.00140008486412 -0.000407239804461 0
-0.00138891679556 -0.000446461903204 0
-0.0013766495789 -0.000485377715464 0
-0.0013632916149 -0.000523956428655 0
-0.00134885216834 -0.000562167460637 0
-0.00133334136178 -0.000599980483954 0
-0.00131677016848 -0.000637365449896 0
-0.00129915040478 -0.000674292612374 0
-0.00128049472171 -0.000710732551578 0
-0.00126081659601 -0.00074665619741 0
-0.00124013032045 -0.000782034852663 0
-0.00121845099348 -0.000816840215935 0
-0.00119579450832 -0.000851044404258 0
-0.0011721775413 -0.000884619975421 0
-0.00114761753969 -0.000917539949973 0
-0.00112213270881 -0.000949777832883 0
-0.00109574199858 -0.000981307634851 0
-0.00106846508949 -0.00101210389324 0
-0.00104032237795 -0.0010421416926 0
-0.00101133496104 -0.00107139668485 0
-0.00098152462077 -0.00109984510891 0
-0.000950913807696 -0.00112746381007 0
-0.000919525624063 -0.00115423025871 0
-0.000887383806383 -0.00118012256872 0
-0.000854512707505 -0.00120511951531 0
-0.000820937278183 -0.00122920055242 0
-0.00078668304815 -0.00125234582951 0
-0.000751776106726 -0.00127453620791 0
-0.000716243082958 -0.00129575327662 0
-0.00068011112532 -0.0013159793675 0
-0.000643407880979 -0.00133519756991 0
-0.00060616147465 -0.00135339174486 0
-0.000568400487057 -0.00137054653841 0
-0.000530153933004 -0.00138664739464 0
-0.00049145123909 -0.00140168056785 0
-0.000452322221075 -0.00141563313425 0
-0.000412797060913 -0.001428493003 0
-0.000372906283477 -0.00144024892652 0
-0.000332680732986 -0.00145089051029 0
-0.000292151549163 -0.00146040822185 0
-0.000251350143126 -0.00146879339926 0
-0.000210308173047 -0.00147603825878 0
-0.000169057519593 -0.00148213590195 0
-0.000127630261156 -0.00148708032191 0
-8.60586489137e-05 -0.00149086640909 0
-4.43750817193e-05 -0.00149348995618 0
-2.61208085264e-06 -0.00149494766238 0
3.91977353529e-05 -0.00149523713696 0
8.10216769865e-05 -0.00149435690211 0
0.000122827008119 -0.00149230639507 0
0.000164580972425 -0.00148908596956 0
0.000206250818851 -0.00148469689645 0
0.0002478038273 -0.00147914136377 0
0.00028920733433 -0.00147242247595 0
0.00033042875882 -0.00146454425238 0
0.000371435627618 -0.00145551162522 0
0.00041219560111 -0.00144533043649 0
0.000452676498731 -0.0014340074345 0
0.000492846324364 -0.00142155026945 0
0.00053267329163 -0.00140796748847 0
0.000572125849034 -0.00139326852978 0
0.000611172704956 -0.00137746371633 0
0.000649782852468 -0.00136056424855 0
0.000687925593947 -0.00134258219658 0
0.000725570565473 -0.00132353049164 0
0.000762687760998 -0.00130342291689 0
0.000799247556249 -0.00128227409745 0
0.000835220732364 -0.00126009948987 0
0.000870578499233 -0.00123691537084 0
0.000905292518524 -0.00121273882535 0
0.000939334926384 -0.00118758773411 0
0.000972678355787 -0.00116148076035 0
0.00100529595852 -0.00113443733607 0
0.00103716142678 -0.00110647764756 0
0.00106824901437 -0.00107762262038 0
0.00109853355749 -0.00104789390374 0
0.00112799049507 -0.00101731385426 0
0.00115659588865 -0.000985905519223 0
0.00118432644186 -0.000953692619198 0
0.00121115951927 -0.00092069953015 0
0.00123707316494 -0.000886951265025 0
0.00126204612026 -0.000852473454796 0
0.0012860578414 -0.000817292329021 0
0.00130908851615 -0.000781434695894 0
0.00133111908022 -0.00074492792184 0
0.00135213123299 -0.000707799910633 0
0.00137210745263 -0.000670079082084 0
0.00139103101069 -0.000631794350295 0
0.001408885986 -0.000592975101503 0
0.00142565727805 -0.000553651171531 0
0.00144133061965 -0.000513852822865 0
0.00145589258898 -0.000473610721371 0
0.00146933062104 -0.000432955912667 0
0.00148163301835 -0.000391919798181 0
0.00149278896106 -0.000350534110897 0
0.00150278851632 -0.00030883089082 0
0.00151162264701 -0.000266842460172 0
0.00151928321975 -0.000224601398346 0
0.00152576301221 -0.000182140516623 0
0.00153105571976 -0.000139492832693 0
0.00153515596129 -9.66915449744e-05 0
0.00153805928448 -5.37700067757e-05 0
0.00153976217017 -1.07617003041e-05 0
0.00154026203615 3.22997894538e-05 0
0.00153955724013 7.5380800958e-05 0
0.001537647082 0.000118447622429 0
0.00153453180534 0.000161466518227 0
0.00153021259826 0.000204403755278 0
0.00152469159338 0.000247225629528 0
0.00151797186719 0.000289898492395 0
0.00151005743855 0.000332388777209 0
0.0015009532666 0.000374663025618 0
0.00149066524775 0.00041668791393 0
0.00147920021208 0.000458430279378 0
0.00146656591896 0.000499857146292 0
0.00145277105187 0.000540935752139 0
0.00143782521257 0.000581633573438 0
0.00142173891455 0.000621918351499 0
0.00140452357568 0.000661758117989 0
0.00138619151019 0.000701121220299 0
0.00136675591998 0.000739976346678 0
0.00134623088514 0.000778292551141 0
0.00132463135383 0.000816039278099 0
0.00130197313143 0.000853186386722 0
0.00127827286908 0.000889704174993 0
0.00125354805143 0.000925563403443 0
0.00122781698383 0.000960735318556 0
0.0012010987788 0.000995191675801 0
0.00117341334188 0.00102890476231 0
0.00114478135681 0.00106184741912 0
0.00111522427017 0.00109399306309 0
0.00108476427528 0.00112531570826 0
0.0010534242956 0.00115578998688 0
0.0010212279675 0.00118539116993 0
0.00098819962243 0.00121409518714 0
0.000954364268607 0.00124187864654 0
0.000919747572049 0.00126871885349 0
0.000884375837146 0.00129459382919 0
0.000848275986687 0.00131948232863 0
0.000811475541378 0.00134336385801 0
0.000774002598877 0.00136621869155 0
0.000735885812355 0.00138802788776 0
0.000697154368594 0.00140877330505 0
0.00065783796565 0.00142843761681 0
0.000617966790088 0.0014470043258 0
0.000577571493815 0.0014644577779 0
0.000536683170521 0.0014807831753 0
0.000495333331747 0.00149596658891 0
0.000453553882613 0.00150999497019 0